<?xml version="1.0" encoding="UTF-8"?>

<!-- generated on 2024-04-10 22:20:41 by Eclipse SUMO GUI Version 1.14.1
<configuration xmlns:xsi="http://www.w3.org/2001/XMLSchema-instance" xsi:noNamespaceSchemaLocation="http://sumo.dlr.de/xsd/sumoConfiguration.xsd">

    <input>
        <net-file value="network.net.xml"/>
        <route-files value="demand.rou.xml"/>
        <additional-files value="additionals.add.xml"/>
    </input>

    <output>
        <tripinfo-output value="data/tripinfo.xml"/>
        <collision-output value="data\collisions.xml"/>
    </output>

    <time>
        <begin value="0"/>
        <end value="300"/>
    </time>

    <processing>
        <lateral-resolution value="1.8"/>
        <collision.action value="remove"/>
        <collision.stoptime value="10"/>
    </processing>

    <report>
        <duration-log.statistics value="true"/>
    </report>

    <traci_server>
        <remote-port value="58004"/>
    </traci_server>

</configuration>
-->

<meandata xmlns:xsi="http://www.w3.org/2001/XMLSchema-instance" xsi:noNamespaceSchemaLocation="http://sumo.dlr.de/xsd/meandata_file.xsd">
    <interval begin="0.00" end="300.00" id="EMS Data"/>
    <interval begin="0.00" end="300.00" id="Other Data">
        <edge id="-E0" sampledSeconds="705.16" traveltime="22.48" overlapTraveltime="23.51" density="30.29" laneDensity="15.15" occupancy="7.28" waitingTime="304.00" timeLoss="523.94" speed="3.51" speedRelative="0.25" departed="0" arrived="0" entered="30" left="30" laneChangedFrom="13" laneChangedTo="13"/>
        <edge id="-E1" sampledSeconds="696.93" traveltime="20.19" overlapTraveltime="21.36" density="26.16" laneDensity="13.08" occupancy="6.28" waitingTime="259.00" timeLoss="469.15" speed="4.39" speedRelative="0.32" departed="0" arrived="0" entered="33" left="32" laneChangedFrom="6" laneChangedTo="6"/>
        <edge id="-E10" sampledSeconds="384.34" traveltime="9.99" overlapTraveltime="10.51" density="14.43" laneDensity="7.21" occupancy="3.41" waitingTime="1.00" timeLoss="136.88" speed="8.93" speedRelative="0.64" departed="0" arrived="0" entered="38" left="35" laneChangedFrom="12" laneChangedTo="12"/>
        <edge id="-E11" sampledSeconds="249.68" traveltime="7.80" overlapTraveltime="8.24" density="9.37" laneDensity="4.69" occupancy="2.20" waitingTime="0.00" timeLoss="44.87" speed="11.39" speedRelative="0.82" departed="0" arrived="0" entered="31" left="30" laneChangedFrom="11" laneChangedTo="11"/>
        <edge id="-E12" sampledSeconds="206.59" traveltime="7.54" overlapTraveltime="7.95" density="7.76" laneDensity="3.88" occupancy="1.83" waitingTime="1.00" timeLoss="29.10" speed="11.80" speedRelative="0.85" departed="0" arrived="0" entered="26" left="26" laneChangedFrom="8" laneChangedTo="8"/>
        <edge id="-E13" sampledSeconds="868.86" traveltime="23.63" overlapTraveltime="24.60" density="32.61" laneDensity="16.31" occupancy="8.02" waitingTime="326.00" timeLoss="622.01" speed="3.81" speedRelative="0.27" departed="39" arrived="0" entered="0" left="35" laneChangedFrom="19" laneChangedTo="19"/>
        <edge id="-E14" sampledSeconds="576.80" traveltime="20.10" overlapTraveltime="21.10" density="21.65" laneDensity="10.83" occupancy="5.29" waitingTime="159.00" timeLoss="385.88" speed="4.45" speedRelative="0.32" departed="30" arrived="0" entered="0" left="28" laneChangedFrom="13" laneChangedTo="13"/>
        <edge id="-E15" sampledSeconds="1207.62" traveltime="31.36" overlapTraveltime="32.40" density="45.33" laneDensity="22.67" occupancy="11.16" waitingTime="528.00" timeLoss="951.17" speed="2.89" speedRelative="0.21" departed="40" arrived="0" entered="0" left="37" laneChangedFrom="27" laneChangedTo="27"/>
        <edge id="-E17" sampledSeconds="608.52" traveltime="21.66" overlapTraveltime="22.50" density="22.84" laneDensity="11.42" occupancy="5.63" waitingTime="235.00" timeLoss="426.62" speed="4.17" speedRelative="0.30" departed="31" arrived="0" entered="0" left="23" laneChangedFrom="8" laneChangedTo="8"/>
        <edge id="-E18" sampledSeconds="433.60" traveltime="14.51" overlapTraveltime="15.36" density="18.63" laneDensity="9.31" occupancy="4.43" waitingTime="157.00" timeLoss="258.39" speed="5.38" speedRelative="0.39" departed="0" arrived="0" entered="29" left="27" laneChangedFrom="6" laneChangedTo="6"/>
        <edge id="-E19" sampledSeconds="728.25" traveltime="19.51" overlapTraveltime="20.53" density="31.28" laneDensity="15.64" occupancy="7.53" waitingTime="269.00" timeLoss="511.82" speed="4.02" speedRelative="0.29" departed="0" arrived="0" entered="37" left="34" laneChangedFrom="15" laneChangedTo="15"/>
        <edge id="-E2" sampledSeconds="1056.74" traveltime="31.34" overlapTraveltime="32.46" density="45.39" laneDensity="22.70" occupancy="11.06" waitingTime="593.00" timeLoss="853.81" speed="2.54" speedRelative="0.18" departed="0" arrived="0" entered="35" left="29" laneChangedFrom="20" laneChangedTo="20"/>
        <edge id="-E23" sampledSeconds="584.24" traveltime="26.06" overlapTraveltime="27.03" density="21.93" laneDensity="10.97" occupancy="5.39" waitingTime="273.00" timeLoss="437.20" speed="3.47" speedRelative="0.25" departed="24" arrived="0" entered="0" left="21" laneChangedFrom="10" laneChangedTo="10"/>
        <edge id="-E3" sampledSeconds="599.45" traveltime="21.75" overlapTraveltime="22.59" density="22.50" laneDensity="11.25" occupancy="5.52" waitingTime="202.00" timeLoss="419.07" speed="4.15" speedRelative="0.30" departed="29" arrived="0" entered="0" left="28" laneChangedFrom="12" laneChangedTo="12"/>
        <edge id="-E4" sampledSeconds="990.15" traveltime="30.24" overlapTraveltime="31.75" density="37.17" laneDensity="18.58" occupancy="9.04" waitingTime="474.00" timeLoss="775.88" speed="2.95" speedRelative="0.21" departed="0" arrived="0" entered="35" left="25" laneChangedFrom="4" laneChangedTo="4"/>
        <edge id="-E5" sampledSeconds="1069.22" traveltime="24.27" overlapTraveltime="25.61" density="40.14" laneDensity="20.07" occupancy="9.82" waitingTime="442.00" timeLoss="782.45" speed="3.66" speedRelative="0.26" departed="46" arrived="0" entered="0" left="40" laneChangedFrom="29" laneChangedTo="29"/>
        <edge id="-E6" sampledSeconds="619.09" traveltime="28.15" overlapTraveltime="29.32" density="23.24" laneDensity="11.62" occupancy="5.69" waitingTime="248.00" timeLoss="467.44" speed="3.20" speedRelative="0.23" departed="23" arrived="0" entered="0" left="22" laneChangedFrom="17" laneChangedTo="17"/>
        <edge id="-E7" sampledSeconds="780.70" traveltime="24.16" overlapTraveltime="25.26" density="29.31" laneDensity="14.65" occupancy="7.18" waitingTime="324.00" timeLoss="563.24" speed="3.71" speedRelative="0.27" departed="35" arrived="0" entered="0" left="30" laneChangedFrom="17" laneChangedTo="17"/>
        <edge id="-E8" sampledSeconds="593.18" traveltime="21.62" overlapTraveltime="22.81" density="22.27" laneDensity="11.13" occupancy="5.37" waitingTime="251.00" timeLoss="411.07" speed="4.11" speedRelative="0.30" departed="0" arrived="0" entered="26" left="26" laneChangedFrom="5" laneChangedTo="5"/>
        <edge id="-E9" sampledSeconds="1103.20" traveltime="35.01" overlapTraveltime="36.03" density="41.41" laneDensity="20.71" occupancy="10.22" waitingTime="525.00" timeLoss="890.34" speed="2.60" speedRelative="0.19" departed="35" arrived="0" entered="0" left="30" laneChangedFrom="25" laneChangedTo="25"/>
        <edge id="E0" sampledSeconds="736.94" traveltime="20.58" overlapTraveltime="21.71" density="31.66" laneDensity="15.83" occupancy="7.60" waitingTime="338.00" timeLoss="524.53" speed="3.80" speedRelative="0.27" departed="0" arrived="0" entered="34" left="34" laneChangedFrom="10" laneChangedTo="10"/>
        <edge id="E1" sampledSeconds="298.98" traveltime="9.09" overlapTraveltime="11.20" density="11.22" laneDensity="5.61" occupancy="2.46" waitingTime="53.00" timeLoss="116.97" speed="8.38" speedRelative="0.60" departed="0" arrived="0" entered="28" left="26" laneChangedFrom="9" laneChangedTo="9"/>
        <edge id="E10" sampledSeconds="1142.93" traveltime="29.65" overlapTraveltime="30.91" density="42.90" laneDensity="21.45" occupancy="10.46" waitingTime="541.00" timeLoss="887.61" speed="3.04" speedRelative="0.22" departed="0" arrived="0" entered="38" left="34" laneChangedFrom="9" laneChangedTo="9"/>
        <edge id="E11" sampledSeconds="728.43" traveltime="30.66" overlapTraveltime="31.91" density="27.34" laneDensity="13.67" occupancy="6.68" waitingTime="403.00" timeLoss="573.18" speed="2.94" speedRelative="0.21" departed="0" arrived="0" entered="23" left="21" laneChangedFrom="2" laneChangedTo="2"/>
        <edge id="E12" sampledSeconds="983.84" traveltime="35.18" overlapTraveltime="36.33" density="36.93" laneDensity="18.47" occupancy="9.06" waitingTime="559.00" timeLoss="795.65" speed="2.58" speedRelative="0.19" departed="0" arrived="0" entered="29" left="26" laneChangedFrom="4" laneChangedTo="4"/>
        <edge id="E13" sampledSeconds="125.12" traveltime="8.01" overlapTraveltime="8.45" density="4.70" laneDensity="2.35" occupancy="1.12" waitingTime="0.00" timeLoss="26.85" speed="11.10" speedRelative="0.80" departed="0" arrived="15" entered="17" left="0" laneChangedFrom="1" laneChangedTo="1"/>
        <edge id="E14" sampledSeconds="242.27" traveltime="9.36" overlapTraveltime="9.78" density="9.09" laneDensity="4.55" occupancy="2.14" waitingTime="0.00" timeLoss="74.98" speed="9.59" speedRelative="0.69" departed="0" arrived="25" entered="25" left="0" laneChangedFrom="5" laneChangedTo="5"/>
        <edge id="E15" sampledSeconds="351.70" traveltime="10.67" overlapTraveltime="11.14" density="13.20" laneDensity="6.60" occupancy="3.14" waitingTime="1.00" timeLoss="141.02" speed="8.42" speedRelative="0.61" departed="0" arrived="32" entered="32" left="0" laneChangedFrom="6" laneChangedTo="6"/>
        <edge id="E17" sampledSeconds="120.59" traveltime="7.68" overlapTraveltime="8.09" density="4.53" laneDensity="2.26" occupancy="1.07" waitingTime="0.00" timeLoss="21.05" speed="11.59" speedRelative="0.83" departed="0" arrived="15" entered="15" left="0" laneChangedFrom="2" laneChangedTo="2"/>
        <edge id="E18" sampledSeconds="852.13" traveltime="26.16" overlapTraveltime="27.44" density="36.60" laneDensity="18.30" occupancy="8.90" waitingTime="436.00" timeLoss="665.09" speed="3.01" speedRelative="0.22" departed="0" arrived="0" entered="33" left="26" laneChangedFrom="14" laneChangedTo="14"/>
        <edge id="E19" sampledSeconds="385.68" traveltime="16.97" overlapTraveltime="18.20" density="16.57" laneDensity="8.28" occupancy="3.94" waitingTime="153.00" timeLoss="258.53" speed="4.54" speedRelative="0.33" departed="0" arrived="0" entered="23" left="19" laneChangedFrom="5" laneChangedTo="5"/>
        <edge id="E2" sampledSeconds="984.88" traveltime="29.77" overlapTraveltime="30.78" density="42.31" laneDensity="21.15" occupancy="10.30" waitingTime="546.00" timeLoss="788.67" speed="2.68" speedRelative="0.19" departed="0" arrived="0" entered="32" left="32" laneChangedFrom="7" laneChangedTo="7"/>
        <edge id="E23" sampledSeconds="118.65" traveltime="7.28" overlapTraveltime="7.69" density="4.45" laneDensity="2.23" occupancy="1.05" waitingTime="0.00" timeLoss="16.77" speed="12.20" speedRelative="0.88" departed="0" arrived="15" entered="16" left="0" laneChangedFrom="0" laneChangedTo="0"/>
        <edge id="E3" sampledSeconds="179.64" traveltime="7.78" overlapTraveltime="8.18" density="6.74" laneDensity="3.37" occupancy="1.58" waitingTime="0.00" timeLoss="31.23" speed="11.46" speedRelative="0.83" departed="0" arrived="22" entered="22" left="0" laneChangedFrom="2" laneChangedTo="2"/>
        <edge id="E4" sampledSeconds="393.24" traveltime="9.67" overlapTraveltime="10.13" density="14.76" laneDensity="7.38" occupancy="3.49" waitingTime="1.00" timeLoss="132.73" speed="9.26" speedRelative="0.67" departed="0" arrived="0" entered="39" left="38" laneChangedFrom="17" laneChangedTo="17"/>
        <edge id="E5" sampledSeconds="182.41" traveltime="8.78" overlapTraveltime="9.20" density="6.85" laneDensity="3.42" occupancy="1.63" waitingTime="0.00" timeLoss="47.47" speed="10.19" speedRelative="0.73" departed="0" arrived="20" entered="20" left="0" laneChangedFrom="2" laneChangedTo="2"/>
        <edge id="E6" sampledSeconds="214.60" traveltime="8.60" overlapTraveltime="8.99" density="8.06" laneDensity="4.03" occupancy="1.90" waitingTime="0.00" timeLoss="56.63" speed="10.43" speedRelative="0.75" departed="0" arrived="24" entered="24" left="0" laneChangedFrom="3" laneChangedTo="3"/>
        <edge id="E7" sampledSeconds="279.21" traveltime="8.48" overlapTraveltime="8.90" density="10.48" laneDensity="5.24" occupancy="2.50" waitingTime="0.00" timeLoss="64.61" speed="10.54" speedRelative="0.76" departed="0" arrived="30" entered="34" left="0" laneChangedFrom="3" laneChangedTo="3"/>
        <edge id="E8" sampledSeconds="297.62" traveltime="9.59" overlapTraveltime="9.99" density="11.17" laneDensity="5.59" occupancy="2.64" waitingTime="1.00" timeLoss="95.44" speed="9.39" speedRelative="0.68" departed="0" arrived="0" entered="30" left="29" laneChangedFrom="15" laneChangedTo="15"/>
        <edge id="E9" sampledSeconds="205.56" traveltime="8.61" overlapTraveltime="9.03" density="7.72" laneDensity="3.86" occupancy="1.83" waitingTime="0.00" timeLoss="49.19" speed="10.39" speedRelative="0.75" departed="0" arrived="22" entered="25" left="0" laneChangedFrom="1" laneChangedTo="1"/>
    </interval>
    <interval begin="0.00" end="300.00" id="All Data">
        <edge id="-E0" sampledSeconds="705.16" traveltime="22.48" overlapTraveltime="23.51" density="30.29" laneDensity="15.15" occupancy="7.28" waitingTime="304.00" timeLoss="523.94" speed="3.51" speedRelative="0.25" departed="0" arrived="0" entered="30" left="30" laneChangedFrom="13" laneChangedTo="13"/>
        <edge id="-E1" sampledSeconds="696.93" traveltime="20.19" overlapTraveltime="21.36" density="26.16" laneDensity="13.08" occupancy="6.28" waitingTime="259.00" timeLoss="469.15" speed="4.39" speedRelative="0.32" departed="0" arrived="0" entered="33" left="32" laneChangedFrom="6" laneChangedTo="6"/>
        <edge id="-E10" sampledSeconds="384.34" traveltime="9.99" overlapTraveltime="10.51" density="14.43" laneDensity="7.21" occupancy="3.41" waitingTime="1.00" timeLoss="136.88" speed="8.93" speedRelative="0.64" departed="0" arrived="0" entered="38" left="35" laneChangedFrom="12" laneChangedTo="12"/>
        <edge id="-E11" sampledSeconds="249.68" traveltime="7.80" overlapTraveltime="8.24" density="9.37" laneDensity="4.69" occupancy="2.20" waitingTime="0.00" timeLoss="44.87" speed="11.39" speedRelative="0.82" departed="0" arrived="0" entered="31" left="30" laneChangedFrom="11" laneChangedTo="11"/>
        <edge id="-E12" sampledSeconds="206.59" traveltime="7.54" overlapTraveltime="7.95" density="7.76" laneDensity="3.88" occupancy="1.83" waitingTime="1.00" timeLoss="29.10" speed="11.80" speedRelative="0.85" departed="0" arrived="0" entered="26" left="26" laneChangedFrom="8" laneChangedTo="8"/>
        <edge id="-E13" sampledSeconds="868.86" traveltime="23.63" overlapTraveltime="24.60" density="32.61" laneDensity="16.31" occupancy="8.02" waitingTime="326.00" timeLoss="622.01" speed="3.81" speedRelative="0.27" departed="39" arrived="0" entered="0" left="35" laneChangedFrom="19" laneChangedTo="19"/>
        <edge id="-E14" sampledSeconds="576.80" traveltime="20.10" overlapTraveltime="21.10" density="21.65" laneDensity="10.83" occupancy="5.29" waitingTime="159.00" timeLoss="385.88" speed="4.45" speedRelative="0.32" departed="30" arrived="0" entered="0" left="28" laneChangedFrom="13" laneChangedTo="13"/>
        <edge id="-E15" sampledSeconds="1207.62" traveltime="31.36" overlapTraveltime="32.40" density="45.33" laneDensity="22.67" occupancy="11.16" waitingTime="528.00" timeLoss="951.17" speed="2.89" speedRelative="0.21" departed="40" arrived="0" entered="0" left="37" laneChangedFrom="27" laneChangedTo="27"/>
        <edge id="-E17" sampledSeconds="608.52" traveltime="21.66" overlapTraveltime="22.50" density="22.84" laneDensity="11.42" occupancy="5.63" waitingTime="235.00" timeLoss="426.62" speed="4.17" speedRelative="0.30" departed="31" arrived="0" entered="0" left="23" laneChangedFrom="8" laneChangedTo="8"/>
        <edge id="-E18" sampledSeconds="433.60" traveltime="14.51" overlapTraveltime="15.36" density="18.63" laneDensity="9.31" occupancy="4.43" waitingTime="157.00" timeLoss="258.39" speed="5.38" speedRelative="0.39" departed="0" arrived="0" entered="29" left="27" laneChangedFrom="6" laneChangedTo="6"/>
        <edge id="-E19" sampledSeconds="728.25" traveltime="19.51" overlapTraveltime="20.53" density="31.28" laneDensity="15.64" occupancy="7.53" waitingTime="269.00" timeLoss="511.82" speed="4.02" speedRelative="0.29" departed="0" arrived="0" entered="37" left="34" laneChangedFrom="15" laneChangedTo="15"/>
        <edge id="-E2" sampledSeconds="1056.74" traveltime="31.34" overlapTraveltime="32.46" density="45.39" laneDensity="22.70" occupancy="11.06" waitingTime="593.00" timeLoss="853.81" speed="2.54" speedRelative="0.18" departed="0" arrived="0" entered="35" left="29" laneChangedFrom="20" laneChangedTo="20"/>
        <edge id="-E23" sampledSeconds="584.24" traveltime="26.06" overlapTraveltime="27.03" density="21.93" laneDensity="10.97" occupancy="5.39" waitingTime="273.00" timeLoss="437.20" speed="3.47" speedRelative="0.25" departed="24" arrived="0" entered="0" left="21" laneChangedFrom="10" laneChangedTo="10"/>
        <edge id="-E3" sampledSeconds="599.45" traveltime="21.75" overlapTraveltime="22.59" density="22.50" laneDensity="11.25" occupancy="5.52" waitingTime="202.00" timeLoss="419.07" speed="4.15" speedRelative="0.30" departed="29" arrived="0" entered="0" left="28" laneChangedFrom="12" laneChangedTo="12"/>
        <edge id="-E4" sampledSeconds="990.15" traveltime="30.24" overlapTraveltime="31.75" density="37.17" laneDensity="18.58" occupancy="9.04" waitingTime="474.00" timeLoss="775.88" speed="2.95" speedRelative="0.21" departed="0" arrived="0" entered="35" left="25" laneChangedFrom="4" laneChangedTo="4"/>
        <edge id="-E5" sampledSeconds="1069.22" traveltime="24.27" overlapTraveltime="25.61" density="40.14" laneDensity="20.07" occupancy="9.82" waitingTime="442.00" timeLoss="782.45" speed="3.66" speedRelative="0.26" departed="46" arrived="0" entered="0" left="40" laneChangedFrom="29" laneChangedTo="29"/>
        <edge id="-E6" sampledSeconds="619.09" traveltime="28.15" overlapTraveltime="29.32" density="23.24" laneDensity="11.62" occupancy="5.69" waitingTime="248.00" timeLoss="467.44" speed="3.20" speedRelative="0.23" departed="23" arrived="0" entered="0" left="22" laneChangedFrom="17" laneChangedTo="17"/>
        <edge id="-E7" sampledSeconds="780.70" traveltime="24.16" overlapTraveltime="25.26" density="29.31" laneDensity="14.65" occupancy="7.18" waitingTime="324.00" timeLoss="563.24" speed="3.71" speedRelative="0.27" departed="35" arrived="0" entered="0" left="30" laneChangedFrom="17" laneChangedTo="17"/>
        <edge id="-E8" sampledSeconds="593.18" traveltime="21.62" overlapTraveltime="22.81" density="22.27" laneDensity="11.13" occupancy="5.37" waitingTime="251.00" timeLoss="411.07" speed="4.11" speedRelative="0.30" departed="0" arrived="0" entered="26" left="26" laneChangedFrom="5" laneChangedTo="5"/>
        <edge id="-E9" sampledSeconds="1103.20" traveltime="35.01" overlapTraveltime="36.03" density="41.41" laneDensity="20.71" occupancy="10.22" waitingTime="525.00" timeLoss="890.34" speed="2.60" speedRelative="0.19" departed="35" arrived="0" entered="0" left="30" laneChangedFrom="25" laneChangedTo="25"/>
        <edge id="E0" sampledSeconds="736.94" traveltime="20.58" overlapTraveltime="21.71" density="31.66" laneDensity="15.83" occupancy="7.60" waitingTime="338.00" timeLoss="524.53" speed="3.80" speedRelative="0.27" departed="0" arrived="0" entered="34" left="34" laneChangedFrom="10" laneChangedTo="10"/>
        <edge id="E1" sampledSeconds="298.98" traveltime="9.09" overlapTraveltime="11.20" density="11.22" laneDensity="5.61" occupancy="2.46" waitingTime="53.00" timeLoss="116.97" speed="8.38" speedRelative="0.60" departed="0" arrived="0" entered="28" left="26" laneChangedFrom="9" laneChangedTo="9"/>
        <edge id="E10" sampledSeconds="1142.93" traveltime="29.65" overlapTraveltime="30.91" density="42.90" laneDensity="21.45" occupancy="10.46" waitingTime="541.00" timeLoss="887.61" speed="3.04" speedRelative="0.22" departed="0" arrived="0" entered="38" left="34" laneChangedFrom="9" laneChangedTo="9"/>
        <edge id="E11" sampledSeconds="728.43" traveltime="30.66" overlapTraveltime="31.91" density="27.34" laneDensity="13.67" occupancy="6.68" waitingTime="403.00" timeLoss="573.18" speed="2.94" speedRelative="0.21" departed="0" arrived="0" entered="23" left="21" laneChangedFrom="2" laneChangedTo="2"/>
        <edge id="E12" sampledSeconds="983.84" traveltime="35.18" overlapTraveltime="36.33" density="36.93" laneDensity="18.47" occupancy="9.06" waitingTime="559.00" timeLoss="795.65" speed="2.58" speedRelative="0.19" departed="0" arrived="0" entered="29" left="26" laneChangedFrom="4" laneChangedTo="4"/>
        <edge id="E13" sampledSeconds="125.12" traveltime="8.01" overlapTraveltime="8.45" density="4.70" laneDensity="2.35" occupancy="1.12" waitingTime="0.00" timeLoss="26.85" speed="11.10" speedRelative="0.80" departed="0" arrived="15" entered="17" left="0" laneChangedFrom="1" laneChangedTo="1"/>
        <edge id="E14" sampledSeconds="242.27" traveltime="9.36" overlapTraveltime="9.78" density="9.09" laneDensity="4.55" occupancy="2.14" waitingTime="0.00" timeLoss="74.98" speed="9.59" speedRelative="0.69" departed="0" arrived="25" entered="25" left="0" laneChangedFrom="5" laneChangedTo="5"/>
        <edge id="E15" sampledSeconds="351.70" traveltime="10.67" overlapTraveltime="11.14" density="13.20" laneDensity="6.60" occupancy="3.14" waitingTime="1.00" timeLoss="141.02" speed="8.42" speedRelative="0.61" departed="0" arrived="32" entered="32" left="0" laneChangedFrom="6" laneChangedTo="6"/>
        <edge id="E17" sampledSeconds="120.59" traveltime="7.68" overlapTraveltime="8.09" density="4.53" laneDensity="2.26" occupancy="1.07" waitingTime="0.00" timeLoss="21.05" speed="11.59" speedRelative="0.83" departed="0" arrived="15" entered="15" left="0" laneChangedFrom="2" laneChangedTo="2"/>
        <edge id="E18" sampledSeconds="852.13" traveltime="26.16" overlapTraveltime="27.44" density="36.60" laneDensity="18.30" occupancy="8.90" waitingTime="436.00" timeLoss="665.09" speed="3.01" speedRelative="0.22" departed="0" arrived="0" entered="33" left="26" laneChangedFrom="14" laneChangedTo="14"/>
        <edge id="E19" sampledSeconds="385.68" traveltime="16.97" overlapTraveltime="18.20" density="16.57" laneDensity="8.28" occupancy="3.94" waitingTime="153.00" timeLoss="258.53" speed="4.54" speedRelative="0.33" departed="0" arrived="0" entered="23" left="19" laneChangedFrom="5" laneChangedTo="5"/>
        <edge id="E2" sampledSeconds="984.88" traveltime="29.77" overlapTraveltime="30.78" density="42.31" laneDensity="21.15" occupancy="10.30" waitingTime="546.00" timeLoss="788.67" speed="2.68" speedRelative="0.19" departed="0" arrived="0" entered="32" left="32" laneChangedFrom="7" laneChangedTo="7"/>
        <edge id="E23" sampledSeconds="118.65" traveltime="7.28" overlapTraveltime="7.69" density="4.45" laneDensity="2.23" occupancy="1.05" waitingTime="0.00" timeLoss="16.77" speed="12.20" speedRelative="0.88" departed="0" arrived="15" entered="16" left="0" laneChangedFrom="0" laneChangedTo="0"/>
        <edge id="E3" sampledSeconds="179.64" traveltime="7.78" overlapTraveltime="8.18" density="6.74" laneDensity="3.37" occupancy="1.58" waitingTime="0.00" timeLoss="31.23" speed="11.46" speedRelative="0.83" departed="0" arrived="22" entered="22" left="0" laneChangedFrom="2" laneChangedTo="2"/>
        <edge id="E4" sampledSeconds="393.24" traveltime="9.67" overlapTraveltime="10.13" density="14.76" laneDensity="7.38" occupancy="3.49" waitingTime="1.00" timeLoss="132.73" speed="9.26" speedRelative="0.67" departed="0" arrived="0" entered="39" left="38" laneChangedFrom="17" laneChangedTo="17"/>
        <edge id="E5" sampledSeconds="182.41" traveltime="8.78" overlapTraveltime="9.20" density="6.85" laneDensity="3.42" occupancy="1.63" waitingTime="0.00" timeLoss="47.47" speed="10.19" speedRelative="0.73" departed="0" arrived="20" entered="20" left="0" laneChangedFrom="2" laneChangedTo="2"/>
        <edge id="E6" sampledSeconds="214.60" traveltime="8.60" overlapTraveltime="8.99" density="8.06" laneDensity="4.03" occupancy="1.90" waitingTime="0.00" timeLoss="56.63" speed="10.43" speedRelative="0.75" departed="0" arrived="24" entered="24" left="0" laneChangedFrom="3" laneChangedTo="3"/>
        <edge id="E7" sampledSeconds="279.21" traveltime="8.48" overlapTraveltime="8.90" density="10.48" laneDensity="5.24" occupancy="2.50" waitingTime="0.00" timeLoss="64.61" speed="10.54" speedRelative="0.76" departed="0" arrived="30" entered="34" left="0" laneChangedFrom="3" laneChangedTo="3"/>
        <edge id="E8" sampledSeconds="297.62" traveltime="9.59" overlapTraveltime="9.99" density="11.17" laneDensity="5.59" occupancy="2.64" waitingTime="1.00" timeLoss="95.44" speed="9.39" speedRelative="0.68" departed="0" arrived="0" entered="30" left="29" laneChangedFrom="15" laneChangedTo="15"/>
        <edge id="E9" sampledSeconds="205.56" traveltime="8.61" overlapTraveltime="9.03" density="7.72" laneDensity="3.86" occupancy="1.83" waitingTime="0.00" timeLoss="49.19" speed="10.39" speedRelative="0.75" departed="0" arrived="22" entered="25" left="0" laneChangedFrom="1" laneChangedTo="1"/>
    </interval>
</meandata>
