<?xml version="1.0" encoding="UTF-8"?>

<!-- generated on 2024-04-02 14:29:48 by Eclipse SUMO GUI Version 1.14.1
<configuration xmlns:xsi="http://www.w3.org/2001/XMLSchema-instance" xsi:noNamespaceSchemaLocation="http://sumo.dlr.de/xsd/sumoConfiguration.xsd">

    <input>
        <net-file value="network.net.xml"/>
        <route-files value="demand.rou.xml"/>
        <additional-files value="additionals.add.xml"/>
    </input>

    <output>
        <tripinfo-output value="data/tripinfo.xml"/>
        <collision-output value="data\collisions.xml"/>
    </output>

    <time>
        <begin value="0"/>
        <end value="300"/>
    </time>

    <processing>
        <lateral-resolution value="1.8"/>
        <collision.action value="remove"/>
        <collision.stoptime value="10"/>
    </processing>

    <traci_server>
        <remote-port value="52352"/>
    </traci_server>

</configuration>
-->

<meandata xmlns:xsi="http://www.w3.org/2001/XMLSchema-instance" xsi:noNamespaceSchemaLocation="http://sumo.dlr.de/xsd/meandata_file.xsd">
    <interval begin="0.00" end="3.00" id="EMS Data"/>
    <interval begin="0.00" end="3.00" id="Other Data">
        <edge id="-E13" sampledSeconds="0.00" departed="1" arrived="0" entered="0" left="0" laneChangedFrom="0" laneChangedTo="0"/>
        <edge id="-E16" sampledSeconds="0.00" departed="1" arrived="0" entered="0" left="0" laneChangedFrom="0" laneChangedTo="0"/>
        <edge id="-E22" sampledSeconds="1.00" traveltime="65.51" overlapTraveltime="69.20" density="3.75" laneDensity="1.88" occupancy="0.94" waitingTime="0.00" timeLoss="0.90" speed="1.36" speedRelative="0.10" departed="1" arrived="0" entered="0" left="0" laneChangedFrom="0" laneChangedTo="0"/>
        <edge id="-E23" sampledSeconds="2.00" traveltime="31.18" overlapTraveltime="32.94" density="7.51" laneDensity="3.75" occupancy="1.88" waitingTime="0.00" timeLoss="1.61" speed="2.85" speedRelative="0.21" departed="1" arrived="0" entered="0" left="0" laneChangedFrom="0" laneChangedTo="0"/>
        <edge id="-E9" sampledSeconds="1.00" traveltime="39.51" overlapTraveltime="41.73" density="3.75" laneDensity="0.94" occupancy="0.47" waitingTime="0.00" timeLoss="0.83" speed="2.25" speedRelative="0.16" departed="1" arrived="0" entered="0" left="0" laneChangedFrom="0" laneChangedTo="0"/>
    </interval>
    <interval begin="0.00" end="3.00" id="All Data">
        <edge id="-E13" sampledSeconds="0.00" departed="1" arrived="0" entered="0" left="0" laneChangedFrom="0" laneChangedTo="0"/>
        <edge id="-E16" sampledSeconds="0.00" departed="1" arrived="0" entered="0" left="0" laneChangedFrom="0" laneChangedTo="0"/>
        <edge id="-E22" sampledSeconds="1.00" traveltime="65.51" overlapTraveltime="69.20" density="3.75" laneDensity="1.88" occupancy="0.94" waitingTime="0.00" timeLoss="0.90" speed="1.36" speedRelative="0.10" departed="1" arrived="0" entered="0" left="0" laneChangedFrom="0" laneChangedTo="0"/>
        <edge id="-E23" sampledSeconds="2.00" traveltime="31.18" overlapTraveltime="32.94" density="7.51" laneDensity="3.75" occupancy="1.88" waitingTime="0.00" timeLoss="1.61" speed="2.85" speedRelative="0.21" departed="1" arrived="0" entered="0" left="0" laneChangedFrom="0" laneChangedTo="0"/>
        <edge id="-E9" sampledSeconds="1.00" traveltime="39.51" overlapTraveltime="41.73" density="3.75" laneDensity="0.94" occupancy="0.47" waitingTime="0.00" timeLoss="0.83" speed="2.25" speedRelative="0.16" departed="1" arrived="0" entered="0" left="0" laneChangedFrom="0" laneChangedTo="0"/>
    </interval>
</meandata>
