<?xml version="1.0" encoding="UTF-8"?>

<!-- generated on 2024-03-27 20:17:07 by Eclipse SUMO GUI Version 1.14.1
<configuration xmlns:xsi="http://www.w3.org/2001/XMLSchema-instance" xsi:noNamespaceSchemaLocation="http://sumo.dlr.de/xsd/sumoConfiguration.xsd">

    <input>
        <net-file value="network.net.xml"/>
        <route-files value="demand.rou.xml"/>
        <additional-files value="additionals.add.xml"/>
    </input>

    <output>
        <tripinfo-output value="data/tripinfo.xml"/>
        <collision-output value="data\collisions.xml"/>
    </output>

    <time>
        <begin value="0"/>
        <end value="300"/>
    </time>

    <processing>
        <lateral-resolution value="1.8"/>
        <collision.action value="remove"/>
        <collision.stoptime value="10"/>
    </processing>

    <traci_server>
        <remote-port value="51803"/>
    </traci_server>

</configuration>
-->

<meandata xmlns:xsi="http://www.w3.org/2001/XMLSchema-instance" xsi:noNamespaceSchemaLocation="http://sumo.dlr.de/xsd/meandata_file.xsd">
    <interval begin="0.00" end="290.00" id="EMS Data">
        <edge id="-E3" sampledSeconds="9.76" traveltime="9.93" overlapTraveltime="10.48" density="0.38" laneDensity="0.19" occupancy="0.12" waitingTime="0.00" timeLoss="5.50" speed="9.09" speedRelative="0.65" departed="1" arrived="0" entered="0" left="1" laneChangedFrom="0" laneChangedTo="0"/>
        <edge id="E1" sampledSeconds="5.57" traveltime="5.10" overlapTraveltime="5.57" density="0.25" laneDensity="0.12" occupancy="0.07" waitingTime="0.00" timeLoss="1.53" speed="15.11" speedRelative="1.09" departed="0" arrived="0" entered="1" left="1" laneChangedFrom="0" laneChangedTo="0"/>
        <edge id="E11" sampledSeconds="6.75" traveltime="5.74" overlapTraveltime="6.75" density="0.30" laneDensity="0.15" occupancy="0.09" waitingTime="0.00" timeLoss="2.72" speed="12.46" speedRelative="0.90" departed="0" arrived="0" entered="1" left="1" laneChangedFrom="0" laneChangedTo="0"/>
        <edge id="E14" sampledSeconds="6.09" traveltime="5.76" overlapTraveltime="6.09" density="0.24" laneDensity="0.12" occupancy="0.07" waitingTime="0.00" timeLoss="1.51" speed="15.65" speedRelative="1.13" departed="0" arrived="1" entered="1" left="0" laneChangedFrom="0" laneChangedTo="0"/>
    </interval>
    <interval begin="0.00" end="290.00" id="Other Data">
        <edge id="-E0" sampledSeconds="334.15" traveltime="24.51" overlapTraveltime="25.74" density="14.85" laneDensity="7.42" occupancy="3.59" waitingTime="190.00" timeLoss="252.50" speed="3.21" speedRelative="0.23" departed="0" arrived="0" entered="13" left="13" laneChangedFrom="8" laneChangedTo="8"/>
        <edge id="-E1" sampledSeconds="165.87" traveltime="17.47" overlapTraveltime="18.43" density="7.37" laneDensity="3.69" occupancy="1.76" waitingTime="72.00" timeLoss="110.16" speed="4.48" speedRelative="0.32" departed="0" arrived="0" entered="9" left="9" laneChangedFrom="3" laneChangedTo="3"/>
        <edge id="-E10" sampledSeconds="433.16" traveltime="21.72" overlapTraveltime="22.80" density="19.25" laneDensity="9.62" occupancy="4.65" waitingTime="234.00" timeLoss="317.10" speed="3.62" speedRelative="0.26" departed="0" arrived="0" entered="19" left="19" laneChangedFrom="5" laneChangedTo="5"/>
        <edge id="-E11" sampledSeconds="217.49" traveltime="15.93" overlapTraveltime="17.04" density="9.66" laneDensity="4.83" occupancy="2.32" waitingTime="78.00" timeLoss="119.17" speed="4.85" speedRelative="0.35" departed="0" arrived="0" entered="13" left="13" laneChangedFrom="2" laneChangedTo="2" vaporized="2"/>
        <edge id="-E12" sampledSeconds="453.55" traveltime="27.22" overlapTraveltime="28.35" density="20.15" laneDensity="10.08" occupancy="4.89" waitingTime="268.00" timeLoss="356.02" speed="2.91" speedRelative="0.21" departed="0" arrived="0" entered="16" left="16" laneChangedFrom="8" laneChangedTo="8"/>
        <edge id="-E13" sampledSeconds="340.33" traveltime="22.29" overlapTraveltime="23.28" density="13.22" laneDensity="6.61" occupancy="3.24" waitingTime="126.00" timeLoss="215.81" speed="4.03" speedRelative="0.29" departed="16" arrived="0" entered="0" left="16" laneChangedFrom="5" laneChangedTo="5" vaporized="2"/>
        <edge id="-E14" sampledSeconds="155.20" traveltime="14.22" overlapTraveltime="14.92" density="6.03" laneDensity="3.01" occupancy="1.47" waitingTime="37.00" timeLoss="85.71" speed="6.29" speedRelative="0.45" departed="11" arrived="0" entered="0" left="11" laneChangedFrom="6" laneChangedTo="6"/>
        <edge id="-E15" sampledSeconds="502.74" traveltime="25.83" overlapTraveltime="26.61" density="19.52" laneDensity="9.76" occupancy="4.81" waitingTime="239.00" timeLoss="372.53" speed="3.52" speedRelative="0.25" departed="20" arrived="0" entered="0" left="20" laneChangedFrom="10" laneChangedTo="10"/>
        <edge id="-E16" sampledSeconds="476.15" traveltime="27.29" overlapTraveltime="28.32" density="18.49" laneDensity="9.24" occupancy="4.55" waitingTime="202.00" timeLoss="335.25" speed="3.31" speedRelative="0.24" departed="18" arrived="0" entered="0" left="18" laneChangedFrom="5" laneChangedTo="5" vaporized="2"/>
        <edge id="-E17" sampledSeconds="532.55" traveltime="26.76" overlapTraveltime="27.85" density="20.68" laneDensity="10.34" occupancy="5.09" waitingTime="180.00" timeLoss="358.80" speed="3.37" speedRelative="0.24" departed="21" arrived="0" entered="0" left="21" laneChangedFrom="10" laneChangedTo="10" vaporized="4"/>
        <edge id="-E18" sampledSeconds="87.69" traveltime="11.69" overlapTraveltime="12.53" density="3.90" laneDensity="1.95" occupancy="0.92" waitingTime="28.00" timeLoss="43.14" speed="6.59" speedRelative="0.47" departed="0" arrived="0" entered="7" left="7" laneChangedFrom="2" laneChangedTo="2"/>
        <edge id="-E19" sampledSeconds="326.09" traveltime="22.48" overlapTraveltime="23.70" density="14.49" laneDensity="7.25" occupancy="3.50" waitingTime="163.00" timeLoss="221.29" speed="3.49" speedRelative="0.25" departed="0" arrived="0" entered="14" left="14" laneChangedFrom="2" laneChangedTo="2" vaporized="2"/>
        <edge id="-E2" sampledSeconds="351.69" traveltime="21.03" overlapTraveltime="21.98" density="15.63" laneDensity="7.81" occupancy="3.77" waitingTime="179.00" timeLoss="254.78" speed="3.76" speedRelative="0.27" departed="0" arrived="0" entered="16" left="16" laneChangedFrom="6" laneChangedTo="6"/>
        <edge id="-E20" sampledSeconds="172.14" traveltime="20.45" overlapTraveltime="21.52" density="7.65" laneDensity="3.82" occupancy="1.84" waitingTime="88.00" timeLoss="122.49" speed="3.84" speedRelative="0.28" departed="0" arrived="0" entered="8" left="8" laneChangedFrom="3" laneChangedTo="3"/>
        <edge id="-E21" sampledSeconds="113.06" traveltime="36.30" overlapTraveltime="37.92" density="5.02" laneDensity="2.51" occupancy="1.23" waitingTime="79.00" timeLoss="94.01" speed="2.18" speedRelative="0.16" departed="0" arrived="0" entered="3" left="3" laneChangedFrom="2" laneChangedTo="2"/>
        <edge id="-E22" sampledSeconds="66.72" traveltime="18.57" overlapTraveltime="23.52" density="2.59" laneDensity="1.30" occupancy="0.60" waitingTime="27.00" timeLoss="43.91" speed="3.99" speedRelative="0.29" departed="3" arrived="0" entered="0" left="3" laneChangedFrom="2" laneChangedTo="2"/>
        <edge id="-E23" sampledSeconds="435.41" traveltime="31.90" overlapTraveltime="32.89" density="16.91" laneDensity="8.45" occupancy="4.16" waitingTime="195.00" timeLoss="346.84" speed="2.85" speedRelative="0.21" departed="14" arrived="0" entered="0" left="14" laneChangedFrom="10" laneChangedTo="10"/>
        <edge id="-E3" sampledSeconds="302.75" traveltime="20.46" overlapTraveltime="21.34" density="11.76" laneDensity="5.88" occupancy="2.88" waitingTime="114.00" timeLoss="203.52" speed="4.39" speedRelative="0.32" departed="15" arrived="0" entered="0" left="15" laneChangedFrom="5" laneChangedTo="5"/>
        <edge id="-E4" sampledSeconds="80.69" traveltime="7.95" overlapTraveltime="8.97" density="3.59" laneDensity="1.79" occupancy="0.82" waitingTime="7.00" timeLoss="25.11" speed="9.21" speedRelative="0.66" departed="0" arrived="0" entered="9" left="9" laneChangedFrom="2" laneChangedTo="2"/>
        <edge id="-E5" sampledSeconds="247.58" traveltime="17.93" overlapTraveltime="18.70" density="9.61" laneDensity="4.81" occupancy="2.35" waitingTime="65.00" timeLoss="155.83" speed="5.02" speedRelative="0.36" departed="14" arrived="0" entered="0" left="14" laneChangedFrom="6" laneChangedTo="6"/>
        <edge id="-E6" sampledSeconds="342.03" traveltime="20.84" overlapTraveltime="21.77" density="13.28" laneDensity="6.64" occupancy="3.25" waitingTime="116.00" timeLoss="211.81" speed="4.31" speedRelative="0.31" departed="17" arrived="0" entered="0" left="17" laneChangedFrom="6" laneChangedTo="6" vaporized="2"/>
        <edge id="-E7" sampledSeconds="138.69" traveltime="17.43" overlapTraveltime="18.33" density="5.39" laneDensity="2.69" occupancy="1.31" waitingTime="38.00" timeLoss="83.60" speed="5.12" speedRelative="0.37" departed="8" arrived="0" entered="0" left="8" laneChangedFrom="4" laneChangedTo="4"/>
        <edge id="-E8" sampledSeconds="202.23" traveltime="13.49" overlapTraveltime="14.45" density="8.99" laneDensity="4.49" occupancy="2.14" waitingTime="76.00" timeLoss="117.55" speed="5.72" speedRelative="0.41" departed="0" arrived="0" entered="14" left="14" laneChangedFrom="3" laneChangedTo="3"/>
        <edge id="-E9" sampledSeconds="446.53" traveltime="27.82" overlapTraveltime="29.07" density="17.34" laneDensity="8.67" occupancy="4.26" waitingTime="164.00" timeLoss="296.16" speed="3.23" speedRelative="0.23" departed="17" arrived="0" entered="0" left="17" laneChangedFrom="8" laneChangedTo="8" vaporized="4"/>
        <edge id="E0" sampledSeconds="242.60" traveltime="19.23" overlapTraveltime="20.22" density="10.78" laneDensity="5.39" occupancy="2.60" waitingTime="143.00" timeLoss="170.62" speed="4.09" speedRelative="0.29" departed="0" arrived="0" entered="12" left="12" laneChangedFrom="2" laneChangedTo="2"/>
        <edge id="E1" sampledSeconds="311.58" traveltime="15.36" overlapTraveltime="16.40" density="13.85" laneDensity="6.92" occupancy="3.30" waitingTime="120.00" timeLoss="190.21" speed="5.04" speedRelative="0.36" departed="0" arrived="0" entered="19" left="19" laneChangedFrom="7" laneChangedTo="7"/>
        <edge id="E10" sampledSeconds="163.45" traveltime="15.67" overlapTraveltime="16.70" density="7.26" laneDensity="3.63" occupancy="1.74" waitingTime="48.00" timeLoss="80.84" speed="4.95" speedRelative="0.36" departed="0" arrived="0" entered="10" left="10" laneChangedFrom="1" laneChangedTo="1" vaporized="2"/>
        <edge id="E11" sampledSeconds="499.90" traveltime="27.06" overlapTraveltime="28.03" density="22.21" laneDensity="11.11" occupancy="5.42" waitingTime="299.00" timeLoss="390.15" speed="2.95" speedRelative="0.21" departed="0" arrived="0" entered="18" left="18" laneChangedFrom="0" laneChangedTo="0" vaporized="1"/>
        <edge id="E12" sampledSeconds="322.61" traveltime="21.98" overlapTraveltime="23.04" density="14.34" laneDensity="7.17" occupancy="3.48" waitingTime="166.00" timeLoss="232.61" speed="3.58" speedRelative="0.26" departed="0" arrived="0" entered="14" left="14" laneChangedFrom="6" laneChangedTo="6"/>
        <edge id="E13" sampledSeconds="105.54" traveltime="7.29" overlapTraveltime="7.68" density="4.10" laneDensity="2.05" occupancy="0.97" waitingTime="0.00" timeLoss="9.68" speed="12.21" speedRelative="0.88" departed="0" arrived="14" entered="14" left="0" laneChangedFrom="0" laneChangedTo="0"/>
        <edge id="E14" sampledSeconds="124.99" traveltime="7.08" overlapTraveltime="7.47" density="4.85" laneDensity="2.43" occupancy="1.15" waitingTime="0.00" timeLoss="12.26" speed="12.56" speedRelative="0.90" departed="0" arrived="17" entered="17" left="0" laneChangedFrom="0" laneChangedTo="0"/>
        <edge id="E15" sampledSeconds="90.77" traveltime="7.25" overlapTraveltime="7.63" density="3.52" laneDensity="1.76" occupancy="0.83" waitingTime="0.00" timeLoss="11.52" speed="12.30" speedRelative="0.89" departed="0" arrived="12" entered="12" left="0" laneChangedFrom="0" laneChangedTo="0"/>
        <edge id="E16" sampledSeconds="123.28" traveltime="7.38" overlapTraveltime="7.77" density="4.79" laneDensity="2.39" occupancy="1.13" waitingTime="0.00" timeLoss="14.33" speed="12.07" speedRelative="0.87" departed="0" arrived="16" entered="16" left="0" laneChangedFrom="0" laneChangedTo="0"/>
        <edge id="E17" sampledSeconds="47.02" traveltime="7.45" overlapTraveltime="7.84" density="1.83" laneDensity="0.91" occupancy="0.43" waitingTime="0.00" timeLoss="5.82" speed="11.97" speedRelative="0.86" departed="0" arrived="6" entered="6" left="0" laneChangedFrom="0" laneChangedTo="0"/>
        <edge id="E18" sampledSeconds="301.50" traveltime="19.49" overlapTraveltime="20.39" density="13.40" laneDensity="6.70" occupancy="3.25" waitingTime="137.00" timeLoss="192.53" speed="4.05" speedRelative="0.29" departed="0" arrived="0" entered="15" left="15" laneChangedFrom="5" laneChangedTo="5" vaporized="2"/>
        <edge id="E19" sampledSeconds="211.73" traveltime="12.36" overlapTraveltime="13.23" density="9.41" laneDensity="4.70" occupancy="2.23" waitingTime="72.00" timeLoss="112.70" speed="6.24" speedRelative="0.45" departed="0" arrived="0" entered="16" left="16" laneChangedFrom="2" laneChangedTo="2"/>
        <edge id="E2" sampledSeconds="77.69" traveltime="8.03" overlapTraveltime="8.64" density="3.45" laneDensity="1.73" occupancy="0.81" waitingTime="13.00" timeLoss="24.06" speed="9.56" speedRelative="0.69" departed="0" arrived="0" entered="9" left="9" laneChangedFrom="1" laneChangedTo="1"/>
        <edge id="E20" sampledSeconds="502.67" traveltime="22.00" overlapTraveltime="22.85" density="22.34" laneDensity="11.17" occupancy="5.42" waitingTime="254.00" timeLoss="368.10" speed="3.62" speedRelative="0.26" departed="0" arrived="0" entered="22" left="22" laneChangedFrom="11" laneChangedTo="11"/>
        <edge id="E21" sampledSeconds="363.08" traveltime="17.32" overlapTraveltime="18.15" density="16.13" laneDensity="8.07" occupancy="3.89" waitingTime="164.00" timeLoss="241.04" speed="4.55" speedRelative="0.33" departed="0" arrived="0" entered="20" left="20" laneChangedFrom="6" laneChangedTo="6"/>
        <edge id="E22" sampledSeconds="167.71" traveltime="7.32" overlapTraveltime="7.71" density="6.51" laneDensity="3.26" occupancy="1.53" waitingTime="0.00" timeLoss="22.44" speed="12.17" speedRelative="0.88" departed="0" arrived="22" entered="22" left="0" laneChangedFrom="0" laneChangedTo="0"/>
        <edge id="E23" sampledSeconds="106.58" traveltime="7.34" overlapTraveltime="7.74" density="4.14" laneDensity="2.07" occupancy="0.98" waitingTime="0.00" timeLoss="11.54" speed="12.12" speedRelative="0.87" departed="0" arrived="14" entered="14" left="0" laneChangedFrom="1" laneChangedTo="1"/>
        <edge id="E3" sampledSeconds="99.49" traveltime="7.34" overlapTraveltime="7.73" density="3.86" laneDensity="1.93" occupancy="0.91" waitingTime="0.00" timeLoss="9.37" speed="12.13" speedRelative="0.87" departed="0" arrived="13" entered="13" left="0" laneChangedFrom="0" laneChangedTo="0"/>
        <edge id="E4" sampledSeconds="190.94" traveltime="12.74" overlapTraveltime="13.64" density="8.48" laneDensity="4.24" occupancy="2.02" waitingTime="70.00" timeLoss="105.87" speed="6.06" speedRelative="0.44" departed="0" arrived="0" entered="14" left="14" laneChangedFrom="5" laneChangedTo="5"/>
        <edge id="E5" sampledSeconds="43.58" traveltime="6.89" overlapTraveltime="7.26" density="1.69" laneDensity="0.85" occupancy="0.40" waitingTime="0.00" timeLoss="3.96" speed="12.91" speedRelative="0.93" departed="0" arrived="6" entered="6" left="0" laneChangedFrom="0" laneChangedTo="0"/>
        <edge id="E6" sampledSeconds="82.32" traveltime="7.23" overlapTraveltime="7.61" density="3.20" laneDensity="1.60" occupancy="0.76" waitingTime="0.00" timeLoss="9.22" speed="12.32" speedRelative="0.89" departed="0" arrived="11" entered="11" left="0" laneChangedFrom="1" laneChangedTo="1"/>
        <edge id="E7" sampledSeconds="56.87" traveltime="6.74" overlapTraveltime="7.11" density="2.21" laneDensity="1.10" occupancy="0.52" waitingTime="0.00" timeLoss="4.71" speed="13.20" speedRelative="0.95" departed="0" arrived="8" entered="8" left="0" laneChangedFrom="1" laneChangedTo="1"/>
        <edge id="E8" sampledSeconds="168.35" traveltime="11.32" overlapTraveltime="12.02" density="7.48" laneDensity="3.74" occupancy="1.77" waitingTime="49.00" timeLoss="80.65" speed="6.87" speedRelative="0.49" departed="0" arrived="0" entered="14" left="14" laneChangedFrom="2" laneChangedTo="2"/>
        <edge id="E9" sampledSeconds="88.03" traveltime="7.01" overlapTraveltime="7.37" density="3.42" laneDensity="1.71" occupancy="0.80" waitingTime="0.00" timeLoss="9.94" speed="12.73" speedRelative="0.92" departed="0" arrived="12" entered="12" left="0" laneChangedFrom="2" laneChangedTo="2"/>
    </interval>
    <interval begin="0.00" end="290.00" id="All Data">
        <edge id="-E0" sampledSeconds="334.15" traveltime="24.51" overlapTraveltime="25.74" density="14.85" laneDensity="7.42" occupancy="3.59" waitingTime="190.00" timeLoss="252.50" speed="3.21" speedRelative="0.23" departed="0" arrived="0" entered="13" left="13" laneChangedFrom="8" laneChangedTo="8"/>
        <edge id="-E1" sampledSeconds="165.87" traveltime="17.47" overlapTraveltime="18.43" density="7.37" laneDensity="3.69" occupancy="1.76" waitingTime="72.00" timeLoss="110.16" speed="4.48" speedRelative="0.32" departed="0" arrived="0" entered="9" left="9" laneChangedFrom="3" laneChangedTo="3"/>
        <edge id="-E10" sampledSeconds="433.16" traveltime="21.72" overlapTraveltime="22.80" density="19.25" laneDensity="9.62" occupancy="4.65" waitingTime="234.00" timeLoss="317.10" speed="3.62" speedRelative="0.26" departed="0" arrived="0" entered="19" left="19" laneChangedFrom="5" laneChangedTo="5"/>
        <edge id="-E11" sampledSeconds="217.49" traveltime="15.93" overlapTraveltime="17.04" density="9.66" laneDensity="4.83" occupancy="2.32" waitingTime="78.00" timeLoss="119.17" speed="4.85" speedRelative="0.35" departed="0" arrived="0" entered="13" left="13" laneChangedFrom="2" laneChangedTo="2" vaporized="2"/>
        <edge id="-E12" sampledSeconds="453.55" traveltime="27.22" overlapTraveltime="28.35" density="20.15" laneDensity="10.08" occupancy="4.89" waitingTime="268.00" timeLoss="356.02" speed="2.91" speedRelative="0.21" departed="0" arrived="0" entered="16" left="16" laneChangedFrom="8" laneChangedTo="8"/>
        <edge id="-E13" sampledSeconds="340.33" traveltime="22.29" overlapTraveltime="23.28" density="13.22" laneDensity="6.61" occupancy="3.24" waitingTime="126.00" timeLoss="215.81" speed="4.03" speedRelative="0.29" departed="16" arrived="0" entered="0" left="16" laneChangedFrom="5" laneChangedTo="5" vaporized="2"/>
        <edge id="-E14" sampledSeconds="155.20" traveltime="14.22" overlapTraveltime="14.92" density="6.03" laneDensity="3.01" occupancy="1.47" waitingTime="37.00" timeLoss="85.71" speed="6.29" speedRelative="0.45" departed="11" arrived="0" entered="0" left="11" laneChangedFrom="6" laneChangedTo="6"/>
        <edge id="-E15" sampledSeconds="502.74" traveltime="25.83" overlapTraveltime="26.61" density="19.52" laneDensity="9.76" occupancy="4.81" waitingTime="239.00" timeLoss="372.53" speed="3.52" speedRelative="0.25" departed="20" arrived="0" entered="0" left="20" laneChangedFrom="10" laneChangedTo="10"/>
        <edge id="-E16" sampledSeconds="476.15" traveltime="27.29" overlapTraveltime="28.32" density="18.49" laneDensity="9.24" occupancy="4.55" waitingTime="202.00" timeLoss="335.25" speed="3.31" speedRelative="0.24" departed="18" arrived="0" entered="0" left="18" laneChangedFrom="5" laneChangedTo="5" vaporized="2"/>
        <edge id="-E17" sampledSeconds="532.55" traveltime="26.76" overlapTraveltime="27.85" density="20.68" laneDensity="10.34" occupancy="5.09" waitingTime="180.00" timeLoss="358.80" speed="3.37" speedRelative="0.24" departed="21" arrived="0" entered="0" left="21" laneChangedFrom="10" laneChangedTo="10" vaporized="4"/>
        <edge id="-E18" sampledSeconds="87.69" traveltime="11.69" overlapTraveltime="12.53" density="3.90" laneDensity="1.95" occupancy="0.92" waitingTime="28.00" timeLoss="43.14" speed="6.59" speedRelative="0.47" departed="0" arrived="0" entered="7" left="7" laneChangedFrom="2" laneChangedTo="2"/>
        <edge id="-E19" sampledSeconds="326.09" traveltime="22.48" overlapTraveltime="23.70" density="14.49" laneDensity="7.25" occupancy="3.50" waitingTime="163.00" timeLoss="221.29" speed="3.49" speedRelative="0.25" departed="0" arrived="0" entered="14" left="14" laneChangedFrom="2" laneChangedTo="2" vaporized="2"/>
        <edge id="-E2" sampledSeconds="351.69" traveltime="21.03" overlapTraveltime="21.98" density="15.63" laneDensity="7.81" occupancy="3.77" waitingTime="179.00" timeLoss="254.78" speed="3.76" speedRelative="0.27" departed="0" arrived="0" entered="16" left="16" laneChangedFrom="6" laneChangedTo="6"/>
        <edge id="-E20" sampledSeconds="172.14" traveltime="20.45" overlapTraveltime="21.52" density="7.65" laneDensity="3.82" occupancy="1.84" waitingTime="88.00" timeLoss="122.49" speed="3.84" speedRelative="0.28" departed="0" arrived="0" entered="8" left="8" laneChangedFrom="3" laneChangedTo="3"/>
        <edge id="-E21" sampledSeconds="113.06" traveltime="36.30" overlapTraveltime="37.92" density="5.02" laneDensity="2.51" occupancy="1.23" waitingTime="79.00" timeLoss="94.01" speed="2.18" speedRelative="0.16" departed="0" arrived="0" entered="3" left="3" laneChangedFrom="2" laneChangedTo="2"/>
        <edge id="-E22" sampledSeconds="66.72" traveltime="18.57" overlapTraveltime="23.52" density="2.59" laneDensity="1.30" occupancy="0.60" waitingTime="27.00" timeLoss="43.91" speed="3.99" speedRelative="0.29" departed="3" arrived="0" entered="0" left="3" laneChangedFrom="2" laneChangedTo="2"/>
        <edge id="-E23" sampledSeconds="435.41" traveltime="31.90" overlapTraveltime="32.89" density="16.91" laneDensity="8.45" occupancy="4.16" waitingTime="195.00" timeLoss="346.84" speed="2.85" speedRelative="0.21" departed="14" arrived="0" entered="0" left="14" laneChangedFrom="10" laneChangedTo="10"/>
        <edge id="-E3" sampledSeconds="312.51" traveltime="19.81" overlapTraveltime="20.67" density="12.14" laneDensity="6.07" occupancy="3.00" waitingTime="114.00" timeLoss="209.02" speed="4.54" speedRelative="0.33" departed="16" arrived="0" entered="0" left="16" laneChangedFrom="5" laneChangedTo="5"/>
        <edge id="-E4" sampledSeconds="80.69" traveltime="7.95" overlapTraveltime="8.97" density="3.59" laneDensity="1.79" occupancy="0.82" waitingTime="7.00" timeLoss="25.11" speed="9.21" speedRelative="0.66" departed="0" arrived="0" entered="9" left="9" laneChangedFrom="2" laneChangedTo="2"/>
        <edge id="-E5" sampledSeconds="247.58" traveltime="17.93" overlapTraveltime="18.70" density="9.61" laneDensity="4.81" occupancy="2.35" waitingTime="65.00" timeLoss="155.83" speed="5.02" speedRelative="0.36" departed="14" arrived="0" entered="0" left="14" laneChangedFrom="6" laneChangedTo="6"/>
        <edge id="-E6" sampledSeconds="342.03" traveltime="20.84" overlapTraveltime="21.77" density="13.28" laneDensity="6.64" occupancy="3.25" waitingTime="116.00" timeLoss="211.81" speed="4.31" speedRelative="0.31" departed="17" arrived="0" entered="0" left="17" laneChangedFrom="6" laneChangedTo="6" vaporized="2"/>
        <edge id="-E7" sampledSeconds="138.69" traveltime="17.43" overlapTraveltime="18.33" density="5.39" laneDensity="2.69" occupancy="1.31" waitingTime="38.00" timeLoss="83.60" speed="5.12" speedRelative="0.37" departed="8" arrived="0" entered="0" left="8" laneChangedFrom="4" laneChangedTo="4"/>
        <edge id="-E8" sampledSeconds="202.23" traveltime="13.49" overlapTraveltime="14.45" density="8.99" laneDensity="4.49" occupancy="2.14" waitingTime="76.00" timeLoss="117.55" speed="5.72" speedRelative="0.41" departed="0" arrived="0" entered="14" left="14" laneChangedFrom="3" laneChangedTo="3"/>
        <edge id="-E9" sampledSeconds="446.53" traveltime="27.82" overlapTraveltime="29.07" density="17.34" laneDensity="8.67" occupancy="4.26" waitingTime="164.00" timeLoss="296.16" speed="3.23" speedRelative="0.23" departed="17" arrived="0" entered="0" left="17" laneChangedFrom="8" laneChangedTo="8" vaporized="4"/>
        <edge id="E0" sampledSeconds="242.60" traveltime="19.23" overlapTraveltime="20.22" density="10.78" laneDensity="5.39" occupancy="2.60" waitingTime="143.00" timeLoss="170.62" speed="4.09" speedRelative="0.29" departed="0" arrived="0" entered="12" left="12" laneChangedFrom="2" laneChangedTo="2"/>
        <edge id="E1" sampledSeconds="317.14" traveltime="14.85" overlapTraveltime="15.85" density="14.09" laneDensity="7.05" occupancy="3.37" waitingTime="120.00" timeLoss="191.74" speed="5.21" speedRelative="0.38" departed="0" arrived="0" entered="20" left="20" laneChangedFrom="7" laneChangedTo="7"/>
        <edge id="E10" sampledSeconds="163.45" traveltime="15.67" overlapTraveltime="16.70" density="7.26" laneDensity="3.63" occupancy="1.74" waitingTime="48.00" timeLoss="80.84" speed="4.95" speedRelative="0.36" departed="0" arrived="0" entered="10" left="10" laneChangedFrom="1" laneChangedTo="1" vaporized="2"/>
        <edge id="E11" sampledSeconds="506.65" traveltime="25.93" overlapTraveltime="26.88" density="22.51" laneDensity="11.26" occupancy="5.51" waitingTime="299.00" timeLoss="392.87" speed="3.07" speedRelative="0.22" departed="0" arrived="0" entered="19" left="19" laneChangedFrom="0" laneChangedTo="0" vaporized="1"/>
        <edge id="E12" sampledSeconds="322.61" traveltime="21.98" overlapTraveltime="23.04" density="14.34" laneDensity="7.17" occupancy="3.48" waitingTime="166.00" timeLoss="232.61" speed="3.58" speedRelative="0.26" departed="0" arrived="0" entered="14" left="14" laneChangedFrom="6" laneChangedTo="6"/>
        <edge id="E13" sampledSeconds="105.54" traveltime="7.29" overlapTraveltime="7.68" density="4.10" laneDensity="2.05" occupancy="0.97" waitingTime="0.00" timeLoss="9.68" speed="12.21" speedRelative="0.88" departed="0" arrived="14" entered="14" left="0" laneChangedFrom="0" laneChangedTo="0"/>
        <edge id="E14" sampledSeconds="131.07" traveltime="7.01" overlapTraveltime="7.39" density="5.09" laneDensity="2.54" occupancy="1.22" waitingTime="0.00" timeLoss="13.77" speed="12.71" speedRelative="0.91" departed="0" arrived="18" entered="18" left="0" laneChangedFrom="0" laneChangedTo="0"/>
        <edge id="E15" sampledSeconds="90.77" traveltime="7.25" overlapTraveltime="7.63" density="3.52" laneDensity="1.76" occupancy="0.83" waitingTime="0.00" timeLoss="11.52" speed="12.30" speedRelative="0.89" departed="0" arrived="12" entered="12" left="0" laneChangedFrom="0" laneChangedTo="0"/>
        <edge id="E16" sampledSeconds="123.28" traveltime="7.38" overlapTraveltime="7.77" density="4.79" laneDensity="2.39" occupancy="1.13" waitingTime="0.00" timeLoss="14.33" speed="12.07" speedRelative="0.87" departed="0" arrived="16" entered="16" left="0" laneChangedFrom="0" laneChangedTo="0"/>
        <edge id="E17" sampledSeconds="47.02" traveltime="7.45" overlapTraveltime="7.84" density="1.83" laneDensity="0.91" occupancy="0.43" waitingTime="0.00" timeLoss="5.82" speed="11.97" speedRelative="0.86" departed="0" arrived="6" entered="6" left="0" laneChangedFrom="0" laneChangedTo="0"/>
        <edge id="E18" sampledSeconds="301.50" traveltime="19.49" overlapTraveltime="20.39" density="13.40" laneDensity="6.70" occupancy="3.25" waitingTime="137.00" timeLoss="192.53" speed="4.05" speedRelative="0.29" departed="0" arrived="0" entered="15" left="15" laneChangedFrom="5" laneChangedTo="5" vaporized="2"/>
        <edge id="E19" sampledSeconds="211.73" traveltime="12.36" overlapTraveltime="13.23" density="9.41" laneDensity="4.70" occupancy="2.23" waitingTime="72.00" timeLoss="112.70" speed="6.24" speedRelative="0.45" departed="0" arrived="0" entered="16" left="16" laneChangedFrom="2" laneChangedTo="2"/>
        <edge id="E2" sampledSeconds="77.69" traveltime="8.03" overlapTraveltime="8.64" density="3.45" laneDensity="1.73" occupancy="0.81" waitingTime="13.00" timeLoss="24.06" speed="9.56" speedRelative="0.69" departed="0" arrived="0" entered="9" left="9" laneChangedFrom="1" laneChangedTo="1"/>
        <edge id="E20" sampledSeconds="502.67" traveltime="22.00" overlapTraveltime="22.85" density="22.34" laneDensity="11.17" occupancy="5.42" waitingTime="254.00" timeLoss="368.10" speed="3.62" speedRelative="0.26" departed="0" arrived="0" entered="22" left="22" laneChangedFrom="11" laneChangedTo="11"/>
        <edge id="E21" sampledSeconds="363.08" traveltime="17.32" overlapTraveltime="18.15" density="16.13" laneDensity="8.07" occupancy="3.89" waitingTime="164.00" timeLoss="241.04" speed="4.55" speedRelative="0.33" departed="0" arrived="0" entered="20" left="20" laneChangedFrom="6" laneChangedTo="6"/>
        <edge id="E22" sampledSeconds="167.71" traveltime="7.32" overlapTraveltime="7.71" density="6.51" laneDensity="3.26" occupancy="1.53" waitingTime="0.00" timeLoss="22.44" speed="12.17" speedRelative="0.88" departed="0" arrived="22" entered="22" left="0" laneChangedFrom="0" laneChangedTo="0"/>
        <edge id="E23" sampledSeconds="106.58" traveltime="7.34" overlapTraveltime="7.74" density="4.14" laneDensity="2.07" occupancy="0.98" waitingTime="0.00" timeLoss="11.54" speed="12.12" speedRelative="0.87" departed="0" arrived="14" entered="14" left="0" laneChangedFrom="1" laneChangedTo="1"/>
        <edge id="E3" sampledSeconds="99.49" traveltime="7.34" overlapTraveltime="7.73" density="3.86" laneDensity="1.93" occupancy="0.91" waitingTime="0.00" timeLoss="9.37" speed="12.13" speedRelative="0.87" departed="0" arrived="13" entered="13" left="0" laneChangedFrom="0" laneChangedTo="0"/>