<?xml version="1.0" encoding="UTF-8"?>

<!-- generated on 2024-04-10 22:20:41 by Eclipse SUMO GUI Version 1.14.1
<configuration xmlns:xsi="http://www.w3.org/2001/XMLSchema-instance" xsi:noNamespaceSchemaLocation="http://sumo.dlr.de/xsd/sumoConfiguration.xsd">

    <input>
        <net-file value="network.net.xml"/>
        <route-files value="demand.rou.xml"/>
        <additional-files value="additionals.add.xml"/>
    </input>

    <output>
        <tripinfo-output value="data/tripinfo.xml"/>
        <collision-output value="data\collisions.xml"/>
    </output>

    <time>
        <begin value="0"/>
        <end value="300"/>
    </time>

    <processing>
        <lateral-resolution value="1.8"/>
        <collision.action value="remove"/>
        <collision.stoptime value="10"/>
    </processing>

    <report>
        <duration-log.statistics value="true"/>
    </report>

    <traci_server>
        <remote-port value="58004"/>
    </traci_server>

</configuration>
-->

<tripinfos xmlns:xsi="http://www.w3.org/2001/XMLSchema-instance" xsi:noNamespaceSchemaLocation="http://sumo.dlr.de/xsd/tripinfo_file.xsd">
    <tripinfo id="f_34.0" depart="6.00" departLane="-E6_1" departPos="5.10" departPosLat="0.00" departSpeed="0.00" departDelay="0.00" arrival="27.00" arrivalLane="E5_0" arrivalPos="88.80" arrivalPosLat="0.00" arrivalSpeed="10.57" duration="21.00" routeLength="181.85" waitingTime="0.00" waitingCount="0" stopTime="0.00" timeLoss="4.71" rerouteNo="0" devices="tripinfo_f_34.0 routing_f_34.0" vType="DEFAULT_VEHTYPE" speedFactor="0.83" vaporized=""/>
    <tripinfo id="f_113.0" depart="17.00" departLane="-E7_1" departPos="5.10" departPosLat="0.00" departSpeed="0.00" departDelay="0.00" arrival="52.00" arrivalLane="E13_1" arrivalPos="88.80" arrivalPosLat="0.00" arrivalSpeed="6.69" duration="35.00" routeLength="381.95" waitingTime="0.00" waitingCount="0" stopTime="0.00" timeLoss="5.93" rerouteNo="1" devices="tripinfo_f_113.0 routing_f_113.0" vType="DEFAULT_VEHTYPE" speedFactor="0.97" vaporized=""/>
    <tripinfo id="f_115.0" depart="3.00" departLane="-E7_1" departPos="5.10" departPosLat="0.00" departSpeed="0.00" departDelay="0.00" arrival="64.00" arrivalLane="E15_1" arrivalPos="88.80" arrivalPosLat="0.00" arrivalSpeed="13.02" duration="61.00" routeLength="581.95" waitingTime="0.00" waitingCount="0" stopTime="0.00" timeLoss="19.41" rerouteNo="1" devices="tripinfo_f_115.0 routing_f_115.0" vType="DEFAULT_VEHTYPE" speedFactor="1.03" vaporized=""/>
    <tripinfo id="f_114.0" depart="7.00" departLane="-E7_0" departPos="5.10" departPosLat="0.00" departSpeed="0.00" departDelay="0.00" arrival="67.00" arrivalLane="E14_1" arrivalPos="88.80" arrivalPosLat="0.00" arrivalSpeed="12.32" duration="60.00" routeLength="481.95" waitingTime="0.00" waitingCount="0" stopTime="0.00" timeLoss="21.87" rerouteNo="1" devices="tripinfo_f_114.0 routing_f_114.0" vType="DEFAULT_VEHTYPE" speedFactor="0.94" vaporized=""/>
    <tripinfo id="f_122.0" depart="50.00" departLane="-E7_1" departPos="5.10" departPosLat="0.00" departSpeed="0.00" departDelay="0.00" arrival="69.00" arrivalLane="E9_1" arrivalPos="88.80" arrivalPosLat="0.00" arrivalSpeed="13.23" duration="19.00" routeLength="193.47" waitingTime="0.00" waitingCount="0" stopTime="0.00" timeLoss="4.09" rerouteNo="0" devices="tripinfo_f_122.0 routing_f_122.0" vType="DEFAULT_VEHTYPE" speedFactor="1.02" vaporized=""/>
    <tripinfo id="f_108.0" depart="0.00" departLane="-E23_0" departPos="5.10" departPosLat="0.00" departSpeed="0.00" departDelay="0.00" arrival="71.00" arrivalLane="E9_0" arrivalPos="88.80" arrivalPosLat="0.00" arrivalSpeed="14.14" duration="71.00" routeLength="393.57" waitingTime="25.00" waitingCount="1" stopTime="0.00" timeLoss="43.71" rerouteNo="1" devices="tripinfo_f_108.0 routing_f_108.0" vType="DEFAULT_VEHTYPE" speedFactor="1.06" vaporized=""/>
    <tripinfo id="f_96.0" depart="6.00" departLane="-E13_0" departPos="5.10" departPosLat="0.00" departSpeed="0.00" departDelay="0.00" arrival="74.00" arrivalLane="E9_0" arrivalPos="88.80" arrivalPosLat="0.00" arrivalSpeed="11.25" duration="68.00" routeLength="395.00" waitingTime="15.00" waitingCount="2" stopTime="0.00" timeLoss="35.89" rerouteNo="1" devices="tripinfo_f_96.0 routing_f_96.0" vType="DEFAULT_VEHTYPE" speedFactor="0.89" vaporized=""/>
    <tripinfo id="f_11.0" depart="18.00" departLane="-E9_0" departPos="5.10" departPosLat="0.00" departSpeed="0.00" departDelay="0.00" arrival="75.00" arrivalLane="E7_0" arrivalPos="88.80" arrivalPosLat="0.00" arrivalSpeed="11.38" duration="57.00" routeLength="181.85" waitingTime="33.00" waitingCount="1" stopTime="0.00" timeLoss="40.75" rerouteNo="0" devices="tripinfo_f_11.0 routing_f_11.0" vType="DEFAULT_VEHTYPE" speedFactor="0.89" vaporized=""/>
    <tripinfo id="f_76.0" depart="27.00" departLane="-E15_0" departPos="5.10" departPosLat="0.00" departSpeed="0.00" departDelay="0.00" arrival="77.00" arrivalLane="E23_0" arrivalPos="88.80" arrivalPosLat="0.00" arrivalSpeed="13.46" duration="50.00" routeLength="393.47" waitingTime="9.00" waitingCount="1" stopTime="0.00" timeLoss="20.17" rerouteNo="1" devices="tripinfo_f_76.0 routing_f_76.0" vType="DEFAULT_VEHTYPE" speedFactor="0.99" vaporized=""/>
    <tripinfo id="f_92.0" depart="6.00" departLane="-E13_1" departPos="5.10" departPosLat="0.00" departSpeed="0.00" departDelay="0.00" arrival="78.00" arrivalLane="E17_0" arrivalPos="88.80" arrivalPosLat="0.00" arrivalSpeed="13.98" duration="72.00" routeLength="381.85" waitingTime="26.00" waitingCount="2" stopTime="0.00" timeLoss="44.43" rerouteNo="1" devices="tripinfo_f_92.0 routing_f_92.0" vType="DEFAULT_VEHTYPE" speedFactor="1.05" vaporized=""/>
    <tripinfo id="f_116.0" depart="25.00" departLane="-E7_1" departPos="5.10" departPosLat="0.00" departSpeed="0.00" departDelay="0.00" arrival="78.00" arrivalLane="E17_1" arrivalPos="88.80" arrivalPosLat="0.00" arrivalSpeed="15.58" duration="53.00" routeLength="580.52" waitingTime="0.00" waitingCount="0" stopTime="0.00" timeLoss="15.59" rerouteNo="1" devices="tripinfo_f_116.0 routing_f_116.0" vType="DEFAULT_VEHTYPE" speedFactor="1.18" vaporized=""/>
    <tripinfo id="f_61.0" depart="31.00" departLane="-E17_0" departPos="5.10" departPosLat="0.00" departSpeed="0.00" departDelay="0.00" arrival="79.00" arrivalLane="E23_0" arrivalPos="88.80" arrivalPosLat="0.00" arrivalSpeed="13.26" duration="48.00" routeLength="394.90" waitingTime="5.00" waitingCount="1" stopTime="0.00" timeLoss="19.58" rerouteNo="1" devices="tripinfo_f_61.0 routing_f_61.0" vType="DEFAULT_VEHTYPE" speedFactor="1.03" vaporized=""/>
    <tripinfo id="f_55.0" depart="41.00" departLane="-E17_0" departPos="5.10" departPosLat="0.00" departSpeed="0.00" departDelay="0.00" arrival="84.00" arrivalLane="E6_0" arrivalPos="88.80" arrivalPosLat="0.00" arrivalSpeed="13.99" duration="43.00" routeLength="368.90" waitingTime="0.00" waitingCount="0" stopTime="0.00" timeLoss="17.10" rerouteNo="1" devices="tripinfo_f_55.0 routing_f_55.0" vType="DEFAULT_VEHTYPE" speedFactor="1.10" vaporized=""/>
    <tripinfo id="f_64.0" depart="58.00" departLane="-E17_1" departPos="5.10" departPosLat="0.00" departSpeed="0.00" departDelay="0.00" arrival="86.00" arrivalLane="E15_1" arrivalPos="88.80" arrivalPosLat="0.00" arrivalSpeed="13.47" duration="28.00" routeLength="193.47" waitingTime="3.00" waitingCount="2" stopTime="0.00" timeLoss="13.57" rerouteNo="0" devices="tripinfo_f_64.0 routing_f_64.0" vType="DEFAULT_VEHTYPE" speedFactor="1.06" vaporized=""/>
    <tripinfo id="f_100.0" depart="70.00" departLane="-E23_0" departPos="5.10" departPosLat="0.00" departSpeed="0.00" departDelay="0.00" arrival="90.00" arrivalLane="E13_0" arrivalPos="88.80" arrivalPosLat="0.00" arrivalSpeed="11.12" duration="20.00" routeLength="181.85" waitingTime="0.00" waitingCount="0" stopTime="0.00" timeLoss="6.00" rerouteNo="0" devices="tripinfo_f_100.0 routing_f_100.0" vType="DEFAULT_VEHTYPE" speedFactor="0.97" vaporized=""/>
    <tripinfo id="f_34.1" depart="52.00" departLane="-E6_0" departPos="5.10" departPosLat="0.00" departSpeed="0.00" departDelay="0.00" arrival="95.00" arrivalLane="E5_0" arrivalPos="88.80" arrivalPosLat="0.00" arrivalSpeed="12.91" duration="43.00" routeLength="181.85" waitingTime="21.00" waitingCount="1" stopTime="0.00" timeLoss="28.35" rerouteNo="0" devices="tripinfo_f_34.1 routing_f_34.1" vType="DEFAULT_VEHTYPE" speedFactor="0.94" vaporized=""/>
    <tripinfo id="f_77.0" depart="1.00" departLane="-E15_1" departPos="5.10" departPosLat="0.00" departSpeed="0.00" departDelay="0.00" arrival="96.00" arrivalLane="E13_1" arrivalPos="88.80" arrivalPosLat="0.00" arrivalSpeed="13.44" duration="95.00" routeLength="392.04" waitingTime="44.00" waitingCount="2" stopTime="0.00" timeLoss="65.50" rerouteNo="1" devices="tripinfo_f_77.0 routing_f_77.0" vType="DEFAULT_VEHTYPE" speedFactor="1.01" vaporized=""/>
    <tripinfo id="f_61.1" depart="63.00" departLane="-E17_0" departPos="5.10" departPosLat="0.00" departSpeed="0.00" departDelay="0.00" arrival="96.00" arrivalLane="E23_0" arrivalPos="88.80" arrivalPosLat="0.00" arrivalSpeed="14.08" duration="33.00" routeLength="394.90" waitingTime="0.00" waitingCount="0" stopTime="0.00" timeLoss="4.52" rerouteNo="1" devices="tripinfo_f_61.1 routing_f_61.1" vType="DEFAULT_VEHTYPE" speedFactor="1.03" vaporized=""/>
    <tripinfo id="f_65.0" depart="2.00" departLane="-E13_0" departPos="5.10" departPosLat="0.00" departSpeed="0.00" departDelay="0.00" arrival="98.00" arrivalLane="E7_1" arrivalPos="88.80" arrivalPosLat="0.00" arrivalSpeed="14.43" duration="96.00" routeLength="393.57" waitingTime="51.00" waitingCount="3" stopTime="0.00" timeLoss="69.10" rerouteNo="0" devices="tripinfo_f_65.0 routing_f_65.0" vType="DEFAULT_VEHTYPE" speedFactor="1.08" vaporized=""/>
    <tripinfo id="f_82.0" depart="23.00" departLane="-E14_0" departPos="5.10" departPosLat="0.00" departSpeed="0.00" departDelay="0.00" arrival="98.00" arrivalLane="E6_0" arrivalPos="88.80" arrivalPosLat="0.00" arrivalSpeed="14.88" duration="75.00" routeLength="481.95" waitingTime="13.00" waitingCount="1" stopTime="0.00" timeLoss="42.66" rerouteNo="1" devices="tripinfo_f_82.0 routing_f_82.0" vType="DEFAULT_VEHTYPE" speedFactor="1.13" vaporized=""/>
    <tripinfo id="f_102.0" depart="9.00" departLane="-E23_1" departPos="5.10" departPosLat="0.00" departSpeed="0.00" departDelay="0.00" arrival="99.00" arrivalLane="E15_0" arrivalPos="88.80" arrivalPosLat="0.00" arrivalSpeed="8.72" duration="90.00" routeLength="381.85" waitingTime="45.00" waitingCount="2" stopTime="0.00" timeLoss="64.90" rerouteNo="1" devices="tripinfo_f_102.0 routing_f_102.0" vType="DEFAULT_VEHTYPE" speedFactor="1.12" vaporized=""/>
    <tripinfo id="f_97.0" depart="26.00" departLane="-E13_1" departPos="5.10" departPosLat="0.00" departSpeed="0.00" departDelay="0.00" arrival="100.00" arrivalLane="E7_1" arrivalPos="88.80" arrivalPosLat="0.00" arrivalSpeed="12.78" duration="74.00" routeLength="393.57" waitingTime="33.00" waitingCount="2" stopTime="0.00" timeLoss="49.02" rerouteNo="1" devices="tripinfo_f_97.0 routing_f_97.0" vType="DEFAULT_VEHTYPE" speedFactor="1.17" vaporized=""/>
    <tripinfo id="f_101.0" depart="57.00" departLane="-E23_1" departPos="5.10" departPosLat="0.00" departSpeed="0.00" departDelay="0.00" arrival="100.00" arrivalLane="E14_0" arrivalPos="88.80" arrivalPosLat="0.00" arrivalSpeed="14.09" duration="43.00" routeLength="281.85" waitingTime="3.00" waitingCount="1" stopTime="0.00" timeLoss="21.54" rerouteNo="1" devices="tripinfo_f_101.0 routing_f_101.0" vType="DEFAULT_VEHTYPE" speedFactor="1.02" vaporized=""/>
    <tripinfo id="f_102.1" depart="25.00" departLane="-E23_0" departPos="5.10" departPosLat="0.00" departSpeed="0.00" departDelay="0.00" arrival="101.00" arrivalLane="E15_0" arrivalPos="88.80" arrivalPosLat="0.00" arrivalSpeed="9.64" duration="76.00" routeLength="381.85" waitingTime="31.00" waitingCount="1" stopTime="0.00" timeLoss="45.92" rerouteNo="1" devices="tripinfo_f_102.1 routing_f_102.1" vType="DEFAULT_VEHTYPE" speedFactor="0.93" vaporized=""/>
    <tripinfo id="f_102.2" depart="33.00" departLane="-E23_0" departPos="5.10" departPosLat="0.00" departSpeed="0.00" departDelay="0.00" arrival="103.00" arrivalLane="E15_0" arrivalPos="88.80" arrivalPosLat="0.00" arrivalSpeed="11.08" duration="70.00" routeLength="381.85" waitingTime="25.00" waitingCount="1" stopTime="0.00" timeLoss="43.75" rerouteNo="1" devices="tripinfo_f_102.2 routing_f_102.2" vType="DEFAULT_VEHTYPE" speedFactor="1.09" vaporized=""/>
    <tripinfo id="f_11.1" depart="77.00" departLane="-E9_1" departPos="5.10" departPosLat="0.00" departSpeed="0.00" departDelay="0.00" arrival="103.00" arrivalLane="E7_0" arrivalPos="88.80" arrivalPosLat="0.00" arrivalSpeed="13.79" duration="26.00" routeLength="181.85" waitingTime="0.00" waitingCount="0" stopTime="0.00" timeLoss="12.18" rerouteNo="0" devices="tripinfo_f_11.1 routing_f_11.1" vType="DEFAULT_VEHTYPE" speedFactor="1.02" vaporized=""/>
    <tripinfo id="f_15.0" depart="15.00" departLane="-E5_0" departPos="5.10" departPosLat="0.00" departSpeed="0.00" departDelay="0.00" arrival="105.00" arrivalLane="E15_0" arrivalPos="88.80" arrivalPosLat="0.00" arrivalSpeed="15.76" duration="90.00" routeLength="395.00" waitingTime="42.00" waitingCount="3" stopTime="0.00" timeLoss="65.31" rerouteNo="0" devices="tripinfo_f_15.0 routing_f_15.0" vType="DEFAULT_VEHTYPE" speedFactor="1.16" vaporized=""/>
    <tripinfo id="f_82.1" depart="38.00" departLane="-E14_1" departPos="5.10" departPosLat="0.00" departSpeed="0.00" departDelay="0.00" arrival="106.00" arrivalLane="E6_0" arrivalPos="88.80" arrivalPosLat="0.00" arrivalSpeed="11.11" duration="68.00" routeLength="481.95" waitingTime="10.00" waitingCount="1" stopTime="0.00" timeLoss="27.79" rerouteNo="1" devices="tripinfo_f_82.1 routing_f_82.1" vType="DEFAULT_VEHTYPE" speedFactor="0.88" vaporized=""/>
    <tripinfo id="f_67.0" depart="39.00" departLane="-E3_1" departPos="5.10" departPosLat="0.00" departSpeed="0.00" departDelay="0.00" arrival="106.00" arrivalLane="E3_0" arrivalPos="88.80" arrivalPosLat="0.00" arrivalSpeed="11.62" duration="67.00" routeLength="400.16" waitingTime="6.00" waitingCount="1" stopTime="0.00" timeLoss="31.67" rerouteNo="0" devices="tripinfo_f_67.0 routing_f_67.0" vType="DEFAULT_VEHTYPE" speedFactor="0.85" vaporized=""/>
    <tripinfo id="f_48.0" depart="14.00" departLane="-E14_0" departPos="5.10" departPosLat="0.00" departSpeed="0.00" departDelay="0.00" arrival="108.00" arrivalLane="E5_1" arrivalPos="88.80" arrivalPosLat="0.00" arrivalSpeed="12.81" duration="94.00" routeLength="480.52" waitingTime="37.00" waitingCount="3" stopTime="0.00" timeLoss="55.73" rerouteNo="0" devices="tripinfo_f_48.0 routing_f_48.0" vType="DEFAULT_VEHTYPE" speedFactor="0.94" vaporized=""/>
    <tripinfo id="f_68.0" depart="64.00" departLane="-E15_0" departPos="5.10" departPosLat="0.00" departSpeed="0.00" departDelay="0.00" arrival="109.00" arrivalLane="E17_0" arrivalPos="88.80" arrivalPosLat="0.00" arrivalSpeed="13.62" duration="45.00" routeLength="181.85" waitingTime="19.00" waitingCount="1" stopTime="0.00" timeLoss="29.97" rerouteNo="0" devices="tripinfo_f_68.0 routing_f_68.0" vType="DEFAULT_VEHTYPE" speedFactor="0.98" vaporized=""/>
    <tripinfo id="f_48.1" depart="26.00" departLane="-E14_0" departPos="5.10" departPosLat="0.00" departSpeed="0.00" departDelay="1.00" arrival="110.00" arrivalLane="E5_1" arrivalPos="88.80" arrivalPosLat="0.00" arrivalSpeed="12.49" duration="84.00" routeLength="480.52" waitingTime="19.00" waitingCount="2" stopTime="0.00" timeLoss="52.68" rerouteNo="0" devices="tripinfo_f_48.1 routing_f_48.1" vType="DEFAULT_VEHTYPE" speedFactor="1.15" vaporized=""/>
    <tripinfo id="f_101.1" depart="78.00" departLane="-E23_1" departPos="5.10" departPosLat="0.00" departSpeed="0.00" departDelay="0.00" arrival="110.00" arrivalLane="E14_0" arrivalPos="88.80" arrivalPosLat="0.00" arrivalSpeed="10.40" duration="32.00" routeLength="281.85" waitingTime="0.00" waitingCount="0" stopTime="0.00" timeLoss="5.97" rerouteNo="1" devices="tripinfo_f_101.1 routing_f_101.1" vType="DEFAULT_VEHTYPE" speedFactor="0.83" vaporized=""/>
    <tripinfo id="f_58.0" depart="48.00" departLane="-E17_0" departPos="5.10" departPosLat="0.00" departSpeed="0.00" departDelay="0.00" arrival="111.00" arrivalLane="E9_0" arrivalPos="88.80" arrivalPosLat="0.00" arrivalSpeed="13.42" duration="63.00" routeLength="581.95" waitingTime="0.00" waitingCount="0" stopTime="0.00" timeLoss="18.38" rerouteNo="1" devices="tripinfo_f_58.0 routing_f_58.0" vType="DEFAULT_VEHTYPE" speedFactor="0.97" vaporized=""/>
    <tripinfo id="f_9.0" depart="40.00" departLane="-E3_0" departPos="5.10" departPosLat="0.00" departSpeed="0.00" departDelay="0.00" arrival="112.00" arrivalLane="E5_1" arrivalPos="88.80" arrivalPosLat="0.00" arrivalSpeed="15.17" duration="72.00" routeLength="292.04" waitingTime="18.00" waitingCount="3" stopTime="0.00" timeLoss="52.76" rerouteNo="0" devices="tripinfo_f_9.0 routing_f_9.0" vType="DEFAULT_VEHTYPE" speedFactor="1.17" vaporized=""/>
    <tripinfo id="f_23.0" depart="23.00" departLane="-E5_1" departPos="5.10" departPosLat="0.00" departSpeed="0.00" departDelay="0.00" arrival="113.00" arrivalLane="E3_0" arrivalPos="88.80" arrivalPosLat="0.00" arrivalSpeed="12.53" duration="90.00" routeLength="268.80" waitingTime="54.00" waitingCount="2" stopTime="0.00" timeLoss="68.27" rerouteNo="1" devices="tripinfo_f_23.0 routing_f_23.0" vType="DEFAULT_VEHTYPE" speedFactor="0.95" vaporized=""/>
    <tripinfo id="f_30.0" depart="41.00" departLane="-E5_0" departPos="5.10" departPosLat="0.00" departSpeed="0.00" departDelay="0.00" arrival="113.00" arrivalLane="E15_1" arrivalPos="88.80" arrivalPosLat="0.00" arrivalSpeed="13.84" duration="72.00" routeLength="395.00" waitingTime="26.00" waitingCount="1" stopTime="0.00" timeLoss="43.07" rerouteNo="1" devices="tripinfo_f_30.0 routing_f_30.0" vType="DEFAULT_VEHTYPE" speedFactor="1.02" vaporized=""/>
    <tripinfo id="f_84.0" depart="15.00" departLane="-E14_1" departPos="5.10" departPosLat="0.00" departSpeed="0.00" departDelay="0.00" arrival="116.00" arrivalLane="E9_0" arrivalPos="88.80" arrivalPosLat="0.00" arrivalSpeed="13.91" duration="101.00" routeLength="480.52" waitingTime="34.00" waitingCount="3" stopTime="0.00" timeLoss="65.52" rerouteNo="1" devices="tripinfo_f_84.0 routing_f_84.0" vType="DEFAULT_VEHTYPE" speedFactor="1.02" vaporized=""/>
    <tripinfo id="f_44.0" depart="8.00" departLane="-E15_0" departPos="5.10" departPosLat="0.00" departSpeed="0.00" departDelay="0.00" arrival="118.00" arrivalLane="E3_0" arrivalPos="88.80" arrivalPosLat="0.00" arrivalSpeed="14.08" duration="110.00" routeLength="480.52" waitingTime="55.00" waitingCount="3" stopTime="0.00" timeLoss="74.86" rerouteNo="0" devices="tripinfo_f_44.0 routing_f_44.0" vType="DEFAULT_VEHTYPE" speedFactor="1.05" vaporized=""/>
    <tripinfo id="f_85.0" depart="36.00" departLane="-E14_0" departPos="5.10" departPosLat="0.00" departSpeed="0.00" departDelay="0.00" arrival="118.00" arrivalLane="E7_1" arrivalPos="88.80" arrivalPosLat="0.00" arrivalSpeed="11.43" duration="82.00" routeLength="493.57" waitingTime="17.00" waitingCount="2" stopTime="0.00" timeLoss="41.19" rerouteNo="1" devices="tripinfo_f_85.0 routing_f_85.0" vType="DEFAULT_VEHTYPE" speedFactor="0.90" vaporized=""/>
    <tripinfo id="f_41.0" depart="28.00" departLane="-E6_0" departPos="5.10" departPosLat="0.00" departSpeed="0.00" departDelay="0.00" arrival="119.00" arrivalLane="E15_0" arrivalPos="88.80" arrivalPosLat="0.00" arrivalSpeed="6.88" duration="91.00" routeLength="393.57" waitingTime="38.00" waitingCount="1" stopTime="0.00" timeLoss="61.29" rerouteNo="1" devices="tripinfo_f_41.0 routing_f_41.0" vType="DEFAULT_VEHTYPE" speedFactor="0.97" vaporized=""/>
    <tripinfo id="f_58.1" depart="59.00" departLane="-E17_0" departPos="5.10" departPosLat="0.00" departSpeed="0.00" departDelay="0.00" arrival="119.00" arrivalLane="E9_1" arrivalPos="88.80" arrivalPosLat="0.00" arrivalSpeed="6.74" duration="60.00" routeLength="581.95" waitingTime="0.00" waitingCount="0" stopTime="0.00" timeLoss="16.40" rerouteNo="1" devices="tripinfo_f_58.1 routing_f_58.1" vType="DEFAULT_VEHTYPE" speedFactor="0.98" vaporized=""/>
    <tripinfo id="f_15.1" depart="54.00" departLane="-E5_0" departPos="5.10" departPosLat="0.00" departSpeed="0.00" departDelay="0.00" arrival="121.00" arrivalLane="E15_1" arrivalPos="88.80" arrivalPosLat="0.00" arrivalSpeed="11.17" duration="67.00" routeLength="395.00" waitingTime="9.00" waitingCount="1" stopTime="0.00" timeLoss="34.53" rerouteNo="0" devices="tripinfo_f_15.1 routing_f_15.1" vType="DEFAULT_VEHTYPE" speedFactor="0.88" vaporized=""/>
    <tripinfo id="f_22.0" depart="9.00" departLane="-E9_1" departPos="5.10" departPosLat="0.00" departSpeed="0.00" departDelay="0.00" arrival="122.00" arrivalLane="E6_0" arrivalPos="88.80" arrivalPosLat="0.00" arrivalSpeed="13.53" duration="113.00" routeLength="393.47" waitingTime="64.00" waitingCount="3" stopTime="0.00" timeLoss="83.26" rerouteNo="1" devices="tripinfo_f_22.0 routing_f_22.0" vType="DEFAULT_VEHTYPE" speedFactor="0.99" vaporized=""/>
    <tripinfo id="f_108.1" depart="23.00" departLane="-E23_1" departPos="5.10" departPosLat="0.00" departSpeed="0.00" departDelay="0.00" arrival="122.00" arrivalLane="E9_1" arrivalPos="88.80" arrivalPosLat="0.00" arrivalSpeed="12.09" duration="99.00" routeLength="393.57" waitingTime="51.00" waitingCount="2" stopTime="0.00" timeLoss="66.46" rerouteNo="1" devices="tripinfo_f_108.1 routing_f_108.1" vType="DEFAULT_VEHTYPE" speedFactor="0.92" vaporized=""/>
    <tripinfo id="f_112.0" depart="42.00" departLane="-E7_0" departPos="5.10" departPosLat="0.00" departSpeed="0.00" departDelay="0.00" arrival="123.00" arrivalLane="E23_0" arrivalPos="88.80" arrivalPosLat="0.00" arrivalSpeed="13.17" duration="81.00" routeLength="368.90" waitingTime="30.00" waitingCount="1" stopTime="0.00" timeLoss="52.58" rerouteNo="1" devices="tripinfo_f_112.0 routing_f_112.0" vType="DEFAULT_VEHTYPE" speedFactor="1.00" vaporized=""/>
    <tripinfo id="f_40.0" depart="44.00" departLane="-E6_1" departPos="5.10" departPosLat="0.00" departSpeed="0.00" departDelay="0.00" arrival="123.00" arrivalLane="E17_1" arrivalPos="88.80" arrivalPosLat="0.00" arrivalSpeed="11.24" duration="79.00" routeLength="392.14" waitingTime="31.00" waitingCount="2" stopTime="0.00" timeLoss="45.71" rerouteNo="1" devices="tripinfo_f_40.0 routing_f_40.0" vType="DEFAULT_VEHTYPE" speedFactor="0.90" vaporized=""/>
    <tripinfo id="f_45.0" depart="11.00" departLane="-E15_0" departPos="5.10" departPosLat="0.00" departSpeed="0.00" departDelay="0.00" arrival="124.00" arrivalLane="E3_0" arrivalPos="88.80" arrivalPosLat="0.00" arrivalSpeed="11.88" duration="113.00" routeLength="480.52" waitingTime="44.00" waitingCount="5" stopTime="0.00" timeLoss="71.24" rerouteNo="0" devices="tripinfo_f_45.0 routing_f_45.0" vType="DEFAULT_VEHTYPE" speedFactor="0.88" vaporized=""/>
    <tripinfo id="f_93.0" depart="35.00" departLane="-E13_1" departPos="5.10" departPosLat="0.00" departSpeed="0.00" departDelay="0.00" arrival="124.00" arrivalLane="E6_0" arrivalPos="88.80" arrivalPosLat="0.00" arrivalSpeed="12.99" duration="89.00" routeLength="581.95" waitingTime="18.00" waitingCount="2" stopTime="0.00" timeLoss="45.38" rerouteNo="1" devices="tripinfo_f_93.0 routing_f_93.0" vType="DEFAULT_VEHTYPE" speedFactor="1.00" vaporized=""/>
    <tripinfo id="f_7.0" depart="88.00" departLane="-E3_1" departPos="5.10" departPosLat="0.00" departSpeed="0.00" departDelay="3.00" arrival="125.00" arrivalLane="E7_0" arrivalPos="88.80" arrivalPosLat="0.00" arrivalSpeed="15.38" duration="37.00" routeLength="281.85" waitingTime="2.00" waitingCount="1" stopTime="0.00" timeLoss="18.33" rerouteNo="0" devices="tripinfo_f_7.0 routing_f_7.0" vType="DEFAULT_VEHTYPE" speedFactor="1.12" vaporized=""/>
    <tripinfo id="f_0.0" depart="34.00" departLane="-E3_0" departPos="5.10" departPosLat="0.00" departSpeed="0.00" departDelay="0.00" arrival="126.00" arrivalLane="E14_0" arrivalPos="88.80" arrivalPosLat="0.00" arrivalSpeed="14.19" duration="92.00" routeLength="395.00" waitingTime="40.00" waitingCount="2" stopTime="0.00" timeLoss="63.69" rerouteNo="0" devices="tripinfo_f_0.0 routing_f_0.0" vType="DEFAULT_VEHTYPE" speedFactor="1.04" vaporized=""/>
    <tripinfo id="f_85.1" depart="41.00" departLane="-E14_1" departPos="5.10" departPosLat="0.00" departSpeed="0.00" departDelay="1.00" arrival="126.00" arrivalLane="E7_1" arrivalPos="88.80" arrivalPosLat="0.00" arrivalSpeed="11.62" duration="85.00" routeLength="493.57" waitingTime="13.00" waitingCount="2" stopTime="0.00" timeLoss="42.57" rerouteNo="1" devices="tripinfo_f_85.1 routing_f_85.1" vType="DEFAULT_VEHTYPE" speedFactor="0.85" vaporized=""/>
    <tripinfo id="f_13.0" depart="7.00" departLane="-E9_0" departPos="5.10" departPosLat="0.00" departSpeed="0.00" departDelay="0.00" arrival="127.00" arrivalLane="E23_0" arrivalPos="88.80" arrivalPosLat="0.00" arrivalSpeed="11.30" duration="120.00" routeLength="381.95" waitingTime="60.00" waitingCount="2" stopTime="0.00" timeLoss="86.77" rerouteNo="0" devices="tripinfo_f_13.0 routing_f_13.0" vType="DEFAULT_VEHTYPE" speedFactor="0.86" vaporized=""/>
    <tripinfo id="f_115.1" depart="29.00" departLane="-E7_1" departPos="5.10" departPosLat="0.00" departSpeed="0.00" departDelay="0.00" arrival="127.00" arrivalLane="E15_0" arrivalPos="88.80" arrivalPosLat="0.00" arrivalSpeed="3.98" duration="98.00" routeLength="581.95" waitingTime="30.00" waitingCount="1" stopTime="0.00" timeLoss="61.74" rerouteNo="1" devices="tripinfo_f_115.1 routing_f_115.1" vType="DEFAULT_VEHTYPE" speedFactor="1.18" vaporized=""/>
    <tripinfo id="f_25.1" depart="49.00" departLane="-E5_1" departPos="5.10" departPosLat="0.00" departSpeed="0.00" departDelay="0.00" arrival="127.00" arrivalLane="E7_0" arrivalPos="88.80" arrivalPosLat="0.00" arrivalSpeed="14.72" duration="78.00" routeLength="381.85" waitingTime="36.00" waitingCount="1" stopTime="0.00" timeLoss="51.41" rerouteNo="1" devices="tripinfo_f_25.1 routing_f_25.1" vType="DEFAULT_VEHTYPE" speedFactor="1.08" vaporized=""/>
    <tripinfo id="f_25.0" depart="10.00" departLane="-E5_1" departPos="5.10" departPosLat="0.00" departSpeed="0.00" departDelay="0.00" arrival="128.00" arrivalLane="E7_1" arrivalPos="88.80" arrivalPosLat="0.00" arrivalSpeed="12.86" duration="118.00" routeLength="381.85" waitingTime="66.00" waitingCount="2" stopTime="0.00" timeLoss="87.06" rerouteNo="1" devices="tripinfo_f_25.0 routing_f_25.0" vType="DEFAULT_VEHTYPE" speedFactor="0.93" vaporized=""/>
    <tripinfo id="f_13.2" depart="43.00" departLane="-E9_1" departPos="5.10" departPosLat="0.00" departSpeed="0.00" departDelay="0.00" arrival="129.00" arrivalLane="E23_0" arrivalPos="88.80" arrivalPosLat="0.00" arrivalSpeed="12.68" duration="86.00" routeLength="381.95" waitingTime="27.00" waitingCount="3" stopTime="0.00" timeLoss="56.96" rerouteNo="0" devices="tripinfo_f_13.2 routing_f_13.2" vType="DEFAULT_VEHTYPE" speedFactor="1.00" vaporized=""/>
    <tripinfo id="f_9.1" depart="55.00" departLane="-E3_1" departPos="5.10" departPosLat="0.00" departSpeed="0.00" departDelay="0.00" arrival="129.00" arrivalLane="E5_0" arrivalPos="88.80" arrivalPosLat="1.60" arrivalSpeed="7.77" duration="74.00" routeLength="292.04" waitingTime="9.00" waitingCount="2" stopTime="0.00" timeLoss="48.77" rerouteNo="0" devices="tripinfo_f_9.1 routing_f_9.1" vType="DEFAULT_VEHTYPE" speedFactor="0.91" vaporized=""/>
    <tripinfo id="f_25.2" depart="57.00" departLane="-E5_1" departPos="5.10" departPosLat="0.00" departSpeed="0.00" departDelay="1.00" arrival="130.00" arrivalLane="E7_1" arrivalPos="88.80" arrivalPosLat="0.00" arrivalSpeed="14.37" duration="73.00" routeLength="381.85" waitingTime="19.00" waitingCount="1" stopTime="0.00" timeLoss="45.50" rerouteNo="1" devices="tripinfo_f_25.2 routing_f_25.2" vType="DEFAULT_VEHTYPE" speedFactor="1.04" vaporized=""/>
    <tripinfo id="f_13.1" depart="35.00" departLane="-E9_1" departPos="5.10" departPosLat="0.00" departSpeed="0.00" departDelay="0.00" arrival="131.00" arrivalLane="E23_0" arrivalPos="88.80" arrivalPosLat="0.00" arrivalSpeed="14.41" duration="96.00" routeLength="381.95" waitingTime="42.00" waitingCount="2" stopTime="0.00" timeLoss="69.55" rerouteNo="0" devices="tripinfo_f_13.1 routing_f_13.1" vType="DEFAULT_VEHTYPE" speedFactor="1.09" vaporized=""/>
    <tripinfo id="f_36.1" depart="73.00" departLane="-E6_0" departPos="5.10" departPosLat="0.00" departSpeed="0.00" departDelay="0.00" arrival="131.00" arrivalLane="E7_0" arrivalPos="88.80" arrivalPosLat="0.00" arrivalSpeed="14.08" duration="58.00" routeLength="394.90" waitingTime="4.00" waitingCount="1" stopTime="0.00" timeLoss="29.82" rerouteNo="1" devices="tripinfo_f_36.1 routing_f_36.1" vType="DEFAULT_VEHTYPE" speedFactor="1.04" vaporized=""/>
    <tripinfo id="f_36.0" depart="72.00" departLane="-E6_1" departPos="5.10" departPosLat="0.00" departSpeed="0.00" departDelay="0.00" arrival="132.00" arrivalLane="E7_1" arrivalPos="88.80" arrivalPosLat="0.00" arrivalSpeed="13.50" duration="60.00" routeLength="394.90" waitingTime="5.00" waitingCount="1" stopTime="0.00" timeLoss="30.80" rerouteNo="1" devices="tripinfo_f_36.0 routing_f_36.0" vType="DEFAULT_VEHTYPE" speedFactor="1.00" vaporized=""/>
    <tripinfo id="f_73.0" depart="18.00" departLane="-E15_0" departPos="5.10" departPosLat="0.00" departSpeed="0.00" departDelay="0.00" arrival="136.00" arrivalLane="E9_0" arrivalPos="88.80" arrivalPosLat="0.00" arrivalSpeed="10.37" duration="118.00" routeLength="580.52" waitingTime="37.00" waitingCount="3" stopTime="0.00" timeLoss="65.88" rerouteNo="1" devices="tripinfo_f_73.0 routing_f_73.0" vType="DEFAULT_VEHTYPE" speedFactor="0.83" vaporized=""/>