<?xml version="1.0" encoding="UTF-8"?>

<!-- generated on 2024-03-27 20:17:07 by Eclipse SUMO GUI Version 1.14.1
<configuration xmlns:xsi="http://www.w3.org/2001/XMLSchema-instance" xsi:noNamespaceSchemaLocation="http://sumo.dlr.de/xsd/sumoConfiguration.xsd">

    <input>
        <net-file value="network.net.xml"/>
        <route-files value="demand.rou.xml"/>
        <additional-files value="additionals.add.xml"/>
    </input>

    <output>
        <tripinfo-output value="data/tripinfo.xml"/>
        <collision-output value="data\collisions.xml"/>
    </output>

    <time>
        <begin value="0"/>
        <end value="300"/>
    </time>

    <processing>
        <lateral-resolution value="1.8"/>
        <collision.action value="remove"/>
        <collision.stoptime value="10"/>
    </processing>

    <traci_server>
        <remote-port value="51803"/>
    </traci_server>

</configuration>
-->

<tripinfos xmlns:xsi="http://www.w3.org/2001/XMLSchema-instance" xsi:noNamespaceSchemaLocation="http://sumo.dlr.de/xsd/tripinfo_file.xsd">
    <tripinfo id="f_66.0" depart="1.00" departLane="-E22_1" departPos="5.10" departPosLat="0.00" departSpeed="0.00" departDelay="0.00" arrival="23.00" arrivalLane="E22_1" arrivalPos="88.80" arrivalPosLat="0.00" arrivalSpeed="13.96" duration="22.00" routeLength="177.75" waitingTime="0.00" waitingCount="0" stopTime="0.00" timeLoss="7.50" rerouteNo="0" devices="tripinfo_f_66.0 routing_f_66.0" vType="DEFAULT_VEHTYPE" speedFactor="1.01" vaporized=""/>
    <tripinfo id="f_65.0" depart="8.00" departLane="-E16_1" departPos="5.10" departPosLat="0.00" departSpeed="0.00" departDelay="0.00" arrival="30.00" arrivalLane="E16_1" arrivalPos="88.80" arrivalPosLat="0.00" arrivalSpeed="13.33" duration="22.00" routeLength="177.75" waitingTime="0.00" waitingCount="0" stopTime="0.00" timeLoss="7.87" rerouteNo="0" devices="tripinfo_f_65.0 routing_f_65.0" vType="DEFAULT_VEHTYPE" speedFactor="0.99" vaporized=""/>
    <tripinfo id="f_99.0" depart="5.00" departLane="-E13_0" departPos="5.10" departPosLat="0.00" departSpeed="0.00" departDelay="0.00" arrival="36.00" arrivalLane="E23_1" arrivalPos="88.80" arrivalPosLat="0.00" arrivalSpeed="11.22" duration="31.00" routeLength="193.47" waitingTime="5.00" waitingCount="1" stopTime="0.00" timeLoss="12.64" rerouteNo="0" devices="tripinfo_f_99.0 routing_f_99.0" vType="DEFAULT_VEHTYPE" speedFactor="0.83" vaporized=""/>
    <tripinfo id="f_39.0" depart="9.00" departLane="-E6_0" departPos="5.10" departPosLat="0.00" departSpeed="0.00" departDelay="1.00" arrival="39.00" arrivalLane="E16_1" arrivalPos="88.80" arrivalPosLat="0.00" arrivalSpeed="14.34" duration="30.00" routeLength="292.04" waitingTime="0.00" waitingCount="0" stopTime="0.00" timeLoss="9.41" rerouteNo="1" devices="tripinfo_f_39.0 routing_f_39.0" vType="DEFAULT_VEHTYPE" speedFactor="1.12" vaporized=""/>
    <tripinfo id="f_34.0" depart="23.00" departLane="-E6_0" departPos="5.10" departPosLat="0.00" departSpeed="0.00" departDelay="0.00" arrival="44.00" arrivalLane="E5_0" arrivalPos="88.80" arrivalPosLat="0.00" arrivalSpeed="12.01" duration="21.00" routeLength="181.85" waitingTime="0.00" waitingCount="0" stopTime="0.00" timeLoss="5.17" rerouteNo="0" devices="tripinfo_f_34.0 routing_f_34.0" vType="DEFAULT_VEHTYPE" speedFactor="0.93" vaporized=""/>
    <tripinfo id="f_62.0" depart="6.00" departLane="-E17_1" departPos="5.10" departPosLat="0.00" departSpeed="0.00" departDelay="0.00" arrival="47.00" arrivalLane="-E17_1" arrivalPos="87.80" arrivalPosLat="0.00" arrivalSpeed="0.00" duration="41.00" routeLength="82.70" waitingTime="18.00" waitingCount="1" stopTime="11.00" timeLoss="23.65" rerouteNo="1" devices="tripinfo_f_62.0 routing_f_62.0" vType="DEFAULT_VEHTYPE" speedFactor="0.94" vaporized="collision"/>
    <tripinfo id="f_48.0" depart="11.00" departLane="-E16_0" departPos="5.10" departPosLat="0.00" departSpeed="0.00" departDelay="0.00" arrival="47.00" arrivalLane="E22_0" arrivalPos="88.80" arrivalPosLat="0.00" arrivalSpeed="12.14" duration="36.00" routeLength="394.90" waitingTime="0.00" waitingCount="0" stopTime="0.00" timeLoss="4.89" rerouteNo="1" devices="tripinfo_f_48.0 routing_f_48.0" vType="DEFAULT_VEHTYPE" speedFactor="0.94" vaporized=""/>
    <tripinfo id="f_58.0" depart="26.00" departLane="-E17_0" departPos="5.10" departPosLat="0.00" departSpeed="0.00" departDelay="0.00" arrival="47.00" arrivalLane="-E17_1" arrivalPos="80.30" arrivalPosLat="0.00" arrivalSpeed="0.00" duration="21.00" routeLength="75.20" waitingTime="0.00" waitingCount="0" stopTime="11.00" timeLoss="4.44" rerouteNo="1" devices="tripinfo_f_58.0 routing_f_58.0" vType="DEFAULT_VEHTYPE" speedFactor="0.97" vaporized="collision"/>
    <tripinfo id="f_70.0" depart="6.00" departLane="-E15_1" departPos="5.10" departPosLat="0.00" departSpeed="0.00" departDelay="0.00" arrival="51.00" arrivalLane="E6_0" arrivalPos="88.80" arrivalPosLat="0.00" arrivalSpeed="11.28" duration="45.00" routeLength="381.85" waitingTime="3.00" waitingCount="1" stopTime="0.00" timeLoss="11.64" rerouteNo="1" devices="tripinfo_f_70.0 routing_f_70.0" vType="DEFAULT_VEHTYPE" speedFactor="0.86" vaporized=""/>
    <tripinfo id="f_42.0" depart="6.00" departLane="-E6_0" departPos="5.10" departPosLat="0.00" departSpeed="0.00" departDelay="0.00" arrival="52.00" arrivalLane="E14_0" arrivalPos="88.80" arrivalPosLat="0.00" arrivalSpeed="13.65" duration="46.00" routeLength="493.47" waitingTime="0.00" waitingCount="0" stopTime="0.00" timeLoss="11.29" rerouteNo="1" devices="tripinfo_f_42.0 routing_f_42.0" vType="DEFAULT_VEHTYPE" speedFactor="1.05" vaporized=""/>
    <tripinfo id="f_54.1" depart="29.00" departLane="-E17_1" departPos="5.10" departPosLat="0.00" departSpeed="0.00" departDelay="1.00" arrival="52.00" arrivalLane="-E17_0" arrivalPos="72.80" arrivalPosLat="0.00" arrivalSpeed="0.00" duration="23.00" routeLength="67.70" waitingTime="2.00" waitingCount="1" stopTime="11.00" timeLoss="7.58" rerouteNo="1" devices="tripinfo_f_54.1 routing_f_54.1" vType="DEFAULT_VEHTYPE" speedFactor="1.10" vaporized="collision"/>
    <tripinfo id="f_56.0" depart="30.00" departLane="-E17_0" departPos="5.10" departPosLat="0.00" departSpeed="0.00" departDelay="1.00" arrival="52.00" arrivalLane="-E17_0" arrivalPos="65.31" arrivalPosLat="0.00" arrivalSpeed="0.00" duration="22.00" routeLength="60.21" waitingTime="0.00" waitingCount="0" stopTime="11.00" timeLoss="6.79" rerouteNo="1" devices="tripinfo_f_56.0 routing_f_56.0" vType="DEFAULT_VEHTYPE" speedFactor="1.03" vaporized="collision"/>
    <tripinfo id="f_121.0" depart="29.00" departLane="-E7_1" departPos="5.10" departPosLat="0.00" departSpeed="0.00" departDelay="0.00" arrival="59.00" arrivalLane="E3_1" arrivalPos="88.80" arrivalPosLat="0.00" arrivalSpeed="12.28" duration="30.00" routeLength="293.47" waitingTime="0.00" waitingCount="0" stopTime="0.00" timeLoss="4.87" rerouteNo="1" devices="tripinfo_f_121.0 routing_f_121.0" vType="DEFAULT_VEHTYPE" speedFactor="0.90" vaporized=""/>
    <tripinfo id="f_42.1" depart="7.00" departLane="-E6_1" departPos="5.10" departPosLat="0.00" departSpeed="0.00" departDelay="0.00" arrival="60.00" arrivalLane="E14_1" arrivalPos="88.80" arrivalPosLat="0.00" arrivalSpeed="13.98" duration="53.00" routeLength="493.47" waitingTime="2.00" waitingCount="1" stopTime="0.00" timeLoss="16.76" rerouteNo="1" devices="tripinfo_f_42.1 routing_f_42.1" vType="DEFAULT_VEHTYPE" speedFactor="1.03" vaporized=""/>
    <tripinfo id="f_13.0" depart="25.00" departLane="-E9_0" departPos="5.10" departPosLat="0.00" departSpeed="0.00" departDelay="0.00" arrival="60.00" arrivalLane="-E9_0" arrivalPos="87.80" arrivalPosLat="0.00" arrivalSpeed="0.00" duration="35.00" routeLength="82.70" waitingTime="12.00" waitingCount="1" stopTime="11.00" timeLoss="18.92" rerouteNo="0" devices="tripinfo_f_13.0 routing_f_13.0" vType="DEFAULT_VEHTYPE" speedFactor="1.17" vaporized="collision"/>
    <tripinfo id="f_69.0" depart="32.00" departLane="-E15_1" departPos="5.10" departPosLat="0.00" departSpeed="0.00" departDelay="0.00" arrival="60.00" arrivalLane="E16_0" arrivalPos="88.80" arrivalPosLat="0.00" arrivalSpeed="14.20" duration="28.00" routeLength="281.85" waitingTime="1.00" waitingCount="1" stopTime="0.00" timeLoss="7.12" rerouteNo="1" devices="tripinfo_f_69.0 routing_f_69.0" vType="DEFAULT_VEHTYPE" speedFactor="1.04" vaporized=""/>
    <tripinfo id="f_13.1" depart="38.00" departLane="-E9_0" departPos="5.10" departPosLat="0.00" departSpeed="0.00" departDelay="0.00" arrival="60.00" arrivalLane="-E9_0" arrivalPos="80.31" arrivalPosLat="0.00" arrivalSpeed="0.00" duration="22.00" routeLength="75.21" waitingTime="0.00" waitingCount="0" stopTime="11.00" timeLoss="4.67" rerouteNo="0" devices="tripinfo_f_13.1 routing_f_13.1" vType="DEFAULT_VEHTYPE" speedFactor="0.85" vaporized="collision"/>
    <tripinfo id="f_64.0" depart="38.00" departLane="-E17_1" departPos="5.10" departPosLat="0.00" departSpeed="0.00" departDelay="0.00" arrival="60.00" arrivalLane="E15_1" arrivalPos="88.80" arrivalPosLat="0.00" arrivalSpeed="13.67" duration="22.00" routeLength="193.47" waitingTime="0.00" waitingCount="0" stopTime="0.00" timeLoss="6.83" rerouteNo="0" devices="tripinfo_f_64.0 routing_f_64.0" vType="DEFAULT_VEHTYPE" speedFactor="1.02" vaporized=""/>
    <tripinfo id="f_92.0" depart="2.00" departLane="-E13_1" departPos="5.10" departPosLat="0.00" departSpeed="0.00" departDelay="0.00" arrival="61.00" arrivalLane="-E19_0" arrivalPos="76.60" arrivalPosLat="0.00" arrivalSpeed="0.00" duration="59.00" routeLength="169.65" waitingTime="23.00" waitingCount="2" stopTime="11.00" timeLoss="35.71" rerouteNo="1" devices="tripinfo_f_92.0 routing_f_92.0" vType="DEFAULT_VEHTYPE" speedFactor="1.03" vaporized="collision"/>
    <tripinfo id="f_90.0" depart="32.00" departLane="-E13_1" departPos="5.10" departPosLat="0.00" departSpeed="0.00" departDelay="0.00" arrival="61.00" arrivalLane="-E19_0" arrivalPos="69.13" arrivalPosLat="0.00" arrivalSpeed="0.00" duration="29.00" routeLength="162.18" waitingTime="0.00" waitingCount="0" stopTime="11.00" timeLoss="6.82" rerouteNo="1" devices="tripinfo_f_90.0 routing_f_90.0" vType="DEFAULT_VEHTYPE" speedFactor="1.09" vaporized="collision"/>
    <tripinfo id="f_15.1" depart="28.00" departLane="-E9_0" departPos="5.10" departPosLat="0.00" departSpeed="0.00" departDelay="1.00" arrival="68.00" arrivalLane="-E9_1" arrivalPos="73.66" arrivalPosLat="0.00" arrivalSpeed="0.00" duration="40.00" routeLength="68.56" waitingTime="19.00" waitingCount="1" stopTime="11.00" timeLoss="24.82" rerouteNo="0" devices="tripinfo_f_15.1 routing_f_15.1" vType="DEFAULT_VEHTYPE" speedFactor="1.18" vaporized="collision"/>
    <tripinfo id="f_32.0" depart="40.00" departLane="-E5_1" departPos="5.10" departPosLat="0.00" departSpeed="0.00" departDelay="0.00" arrival="68.00" arrivalLane="E16_1" arrivalPos="88.80" arrivalPosLat="0.00" arrivalSpeed="12.84" duration="28.00" routeLength="293.47" waitingTime="0.00" waitingCount="0" stopTime="0.00" timeLoss="5.45" rerouteNo="1" devices="tripinfo_f_32.0 routing_f_32.0" vType="DEFAULT_VEHTYPE" speedFactor="1.00" vaporized=""/>
    <tripinfo id="f_13.2" depart="47.00" departLane="-E9_1" departPos="5.10" departPosLat="0.00" departSpeed="0.00" departDelay="0.00" arrival="68.00" arrivalLane="-E9_1" arrivalPos="66.16" arrivalPosLat="-0.30" arrivalSpeed="0.00" duration="21.00" routeLength="61.06" waitingTime="0.00" waitingCount="0" stopTime="11.00" timeLoss="5.55" rerouteNo="0" devices="tripinfo_f_13.2 routing_f_13.2" vType="DEFAULT_VEHTYPE" speedFactor="0.99" vaporized="collision"/>
    <tripinfo id="f_46.0" depart="6.00" departLane="-E16_0" departPos="5.10" departPosLat="0.00" departSpeed="0.00" departDelay="0.00" arrival="70.00" arrivalLane="E3_0" arrivalPos="88.80" arrivalPosLat="0.00" arrivalSpeed="11.82" duration="64.00" routeLength="381.85" waitingTime="20.00" waitingCount="1" stopTime="0.00" timeLoss="31.15" rerouteNo="1" devices="tripinfo_f_46.0 routing_f_46.0" vType="DEFAULT_VEHTYPE" speedFactor="0.89" vaporized=""/>
    <tripinfo id="f_47.0" depart="2.00" departLane="-E16_1" departPos="5.10" departPosLat="0.00" departSpeed="0.00" departDelay="0.00" arrival="72.00" arrivalLane="E9_0" arrivalPos="88.80" arrivalPosLat="0.00" arrivalSpeed="15.00" duration="70.00" routeLength="481.85" waitingTime="24.00" waitingCount="1" stopTime="0.00" timeLoss="36.57" rerouteNo="1" devices="tripinfo_f_47.0 routing_f_47.0" vType="DEFAULT_VEHTYPE" speedFactor="1.08" vaporized=""/>
    <tripinfo id="f_54.0" depart="13.00" departLane="-E17_1" departPos="5.10" departPosLat="0.00" departSpeed="0.00" departDelay="0.00" arrival="72.00" arrivalLane="E16_0" arrivalPos="88.80" arrivalPosLat="0.00" arrivalSpeed="11.85" duration="59.00" routeLength="268.80" waitingTime="23.00" waitingCount="1" stopTime="0.00" timeLoss="37.15" rerouteNo="1" devices="tripinfo_f_54.0 routing_f_54.0" vType="DEFAULT_VEHTYPE" speedFactor="0.94" vaporized=""/>
    <tripinfo id="f_89.0" depart="38.00" departLane="-E13_1" departPos="5.10" departPosLat="0.00" departSpeed="0.00" departDelay="0.00" arrival="73.00" arrivalLane="E14_0" arrivalPos="88.80" arrivalPosLat="0.00" arrivalSpeed="14.51" duration="35.00" routeLength="268.80" waitingTime="2.00" waitingCount="1" stopTime="0.00" timeLoss="16.19" rerouteNo="1" devices="tripinfo_f_89.0 routing_f_89.0" vType="DEFAULT_VEHTYPE" speedFactor="1.10" vaporized=""/>
    <tripinfo id="f_38.0" depart="26.00" departLane="-E6_1" departPos="5.10" departPosLat="0.00" departSpeed="0.00" departDelay="0.00" arrival="76.00" arrivalLane="E23_0" arrivalPos="88.80" arrivalPosLat="0.00" arrivalSpeed="14.04" duration="50.00" routeLength="580.42" waitingTime="0.00" waitingCount="0" stopTime="0.00" timeLoss="7.94" rerouteNo="1" devices="tripinfo_f_38.0 routing_f_38.0" vType="DEFAULT_VEHTYPE" speedFactor="1.02" vaporized=""/>
    <tripinfo id="f_113.0" depart="37.00" departLane="-E7_1" departPos="5.10" departPosLat="0.00" departSpeed="0.00" departDelay="0.00" arrival="76.00" arrivalLane="E13_1" arrivalPos="88.80" arrivalPosLat="0.00" arrivalSpeed="11.02" duration="39.00" routeLength="381.85" waitingTime="0.00" waitingCount="0" stopTime="0.00" timeLoss="5.50" rerouteNo="1" devices="tripinfo_f_113.0 routing_f_113.0" vType="DEFAULT_VEHTYPE" speedFactor="0.85" vaporized=""/>
    <tripinfo id="f_88.0" depart="30.00" departLane="-E14_1" departPos="5.10" departPosLat="0.00" departSpeed="0.00" departDelay="0.00" arrival="78.00" arrivalLane="E13_1" arrivalPos="88.80" arrivalPosLat="0.00" arrivalSpeed="15.07" duration="48.00" routeLength="292.04" waitingTime="13.00" waitingCount="2" stopTime="0.00" timeLoss="27.17" rerouteNo="1" devices="tripinfo_f_88.0 routing_f_88.0" vType="DEFAULT_VEHTYPE" speedFactor="1.09" vaporized=""/>
    <tripinfo id="f_77.0" depart="9.00" departLane="-E15_0" departPos="5.10" departPosLat="0.00" departSpeed="0.00" departDelay="3.00" arrival="80.00" arrivalLane="E13_1" arrivalPos="88.80" arrivalPosLat="0.00" arrivalSpeed="15.04" duration="71.00" routeLength="392.04" waitingTime="27.00" waitingCount="1" stopTime="0.00" timeLoss="43.59" rerouteNo="1" devices="tripinfo_f_77.0 routing_f_77.0" vType="DEFAULT_VEHTYPE" speedFactor="1.09" vaporized=""/>
    <tripinfo id="f_15.0" depart="1.00" departLane="-E9_1" departPos="5.10" departPosLat="0.00" departSpeed="0.00" departDelay="0.00" arrival="81.00" arrivalLane="E16_0" arrivalPos="88.80" arrivalPosLat="0.00" arrivalSpeed="12.02" duration="80.00" routeLength="478.99" waitingTime="16.00" waitingCount="3" stopTime="0.00" timeLoss="41.12" rerouteNo="0" devices="tripinfo_f_15.0 routing_f_15.0" vType="DEFAULT_VEHTYPE" speedFactor="0.94" vaporized=""/>
    <tripinfo id="f_81.0" depart="19.00" departLane="-E14_0" departPos="5.10" departPosLat="0.00" departSpeed="0.00" departDelay="0.00" arrival="82.00" arrivalLane="E16_1" arrivalPos="88.80" arrivalPosLat="-1.00" arrivalSpeed="11.19" duration="63.00" routeLength="381.85" waitingTime="19.00" waitingCount="1" stopTime="0.00" timeLoss="30.19" rerouteNo="1" devices="tripinfo_f_81.0 routing_f_81.0" vType="DEFAULT_VEHTYPE" speedFactor="0.87" vaporized=""/>
    <tripinfo id="f_56.1" depart="34.00" departLane="-E17_1" departPos="5.10" departPosLat="0.00" departSpeed="0.00" departDelay="1.00" arrival="82.00" arrivalLane="E5_1" arrivalPos="88.80" arrivalPosLat="0.00" arrivalSpeed="12.84" duration="48.00" routeLength="381.85" waitingTime="8.00" waitingCount="1" stopTime="0.00" timeLoss="19.30" rerouteNo="1" devices="tripinfo_f_56.1 routing_f_56.1" vType="DEFAULT_VEHTYPE" speedFactor="1.00" vaporized=""/>
    <tripinfo id="f_61.0" depart="41.00" departLane="-E17_0" departPos="5.10" departPosLat="0.00" departSpeed="0.00" departDelay="0.00" arrival="82.00" arrivalLane="E23_0" arrivalPos="88.80" arrivalPosLat="0.00" arrivalSpeed="15.22" duration="41.00" routeLength="394.90" waitingTime="0.00" waitingCount="0" stopTime="0.00" timeLoss="15.98" rerouteNo="1" devices="tripinfo_f_61.0 routing_f_61.0" vType="DEFAULT_VEHTYPE" speedFactor="1.14" vaporized=""/>
    <tripinfo id="f_76.0" depart="21.00" departLane="-E15_1" departPos="5.10" departPosLat="0.00" departSpeed="0.00" departDelay="0.00" arrival="83.00" arrivalLane="E23_1" arrivalPos="88.80" arrivalPosLat="0.00" arrivalSpeed="12.04" duration="62.00" routeLength="393.47" waitingTime="16.00" waitingCount="1" stopTime="0.00" timeLoss="30.70" rerouteNo="1" devices="tripinfo_f_76.0 routing_f_76.0" vType="DEFAULT_VEHTYPE" speedFactor="0.95" vaporized=""/>
    <tripinfo id="f_40.0" depart="45.00" departLane="-E6_0" departPos="5.10" departPosLat="0.00" departSpeed="0.00" departDelay="0.00" arrival="83.00" arrivalLane="-E6_1" arrivalPos="80.30" arrivalPosLat="0.00" arrivalSpeed="0.00" duration="38.00" routeLength="75.20" waitingTime="17.00" waitingCount="1" stopTime="11.00" timeLoss="21.42" rerouteNo="1" devices="tripinfo_f_40.0 routing_f_40.0" vType="DEFAULT_VEHTYPE" speedFactor="0.97" vaporized="collision"/>
    <tripinfo id="f_43.1" depart="63.00" departLane="-E6_1" departPos="5.10" departPosLat="0.00" departSpeed="0.00" departDelay="0.00" arrival="83.00" arrivalLane="-E6_1" arrivalPos="72.81" arrivalPosLat="0.00" arrivalSpeed="0.00" duration="20.00" routeLength="67.71" waitingTime="0.00" waitingCount="0" stopTime="11.00" timeLoss="4.21" rerouteNo="1" devices="tripinfo_f_43.1 routing_f_43.1" vType="DEFAULT_VEHTYPE" speedFactor="1.02" vaporized="collision"/>
    <tripinfo id="f_76.1" depart="31.00" departLane="-E15_0" departPos="5.10" departPosLat="0.00" departSpeed="0.00" departDelay="0.00" arrival="85.00" arrivalLane="E23_1" arrivalPos="88.80" arrivalPosLat="0.00" arrivalSpeed="13.70" duration="54.00" routeLength="393.47" waitingTime="9.00" waitingCount="1" stopTime="0.00" timeLoss="25.06" rerouteNo="1" devices="tripinfo_f_76.1 routing_f_76.1" vType="DEFAULT_VEHTYPE" speedFactor="1.04" vaporized=""/>
    <tripinfo id="f_45.0" depart="24.00" departLane="-E16_1" departPos="5.10" departPosLat="0.00" departSpeed="0.00" departDelay="1.00" arrival="86.00" arrivalLane="E5_1" arrivalPos="88.80" arrivalPosLat="0.00" arrivalSpeed="15.61" duration="62.00" routeLength="281.85" waitingTime="34.00" waitingCount="1" stopTime="0.00" timeLoss="43.89" rerouteNo="1" devices="tripinfo_f_45.0 routing_f_45.0" vType="DEFAULT_VEHTYPE" speedFactor="1.18" vaporized=""/>
    <tripinfo id="f_61.1" depart="52.00" departLane="-E17_1" departPos="5.10" departPosLat="0.00" departSpeed="0.00" departDelay="0.00" arrival="86.00" arrivalLane="E23_1" arrivalPos="88.80" arrivalPosLat="0.00" arrivalSpeed="13.25" duration="34.00" routeLength="394.90" waitingTime="0.00" waitingCount="0" stopTime="0.00" timeLoss="6.46" rerouteNo="1" devices="tripinfo_f_61.1 routing_f_61.1" vType="DEFAULT_VEHTYPE" speedFactor="1.04" vaporized=""/>
    <tripinfo id="f_12.0" depart="63.00" departLane="-E9_0" departPos="5.10" departPosLat="0.00" departSpeed="0.00" departDelay="1.00" arrival="90.00" arrivalLane="E22_0" arrivalPos="88.80" arrivalPosLat="0.00" arrivalSpeed="14.07" duration="27.00" routeLength="281.85" waitingTime="0.00" waitingCount="0" stopTime="0.00" timeLoss="6.44" rerouteNo="0" devices="tripinfo_f_12.0 routing_f_12.0" vType="DEFAULT_VEHTYPE" speedFactor="1.03" vaporized=""/>
    <tripinfo id="f_92.1" depart="46.00" departLane="-E13_0" departPos="5.10" departPosLat="0.00" departSpeed="0.00" departDelay="0.00" arrival="91.00" arrivalLane="E17_0" arrivalPos="88.80" arrivalPosLat="0.00" arrivalSpeed="13.73" duration="45.00" routeLength="381.85" waitingTime="3.00" waitingCount="1" stopTime="0.00" timeLoss="16.58" rerouteNo="1" devices="tripinfo_f_92.1 routing_f_92.1" vType="DEFAULT_VEHTYPE" speedFactor="1.02" vaporized=""/>
    <tripinfo id="f_60.0" depart="9.00" departLane="-E17_1" departPos="5.10" departPosLat="0.00" departSpeed="0.00" departDelay="0.00" arrival="94.00" arrivalLane="E22_1" arrivalPos="88.80" arrivalPosLat="0.00" arrivalSpeed="11.86" duration="85.00" routeLength="480.42" waitingTime="26.00" waitingCount="1" stopTime="0.00" timeLoss="45.49" rerouteNo="1" devices="tripinfo_f_60.0 routing_f_60.0" vType="DEFAULT_VEHTYPE" speedFactor="0.93" vaporized=""/>
    <tripinfo id="f_86.0" depart="23.00" departLane="-E14_0" departPos="5.10" departPosLat="0.00" departSpeed="0.00" departDelay="0.00" arrival="95.00" arrivalLane="E22_0" arrivalPos="88.80" arrivalPosLat="0.00" arrivalSpeed="15.57" duration="72.00" routeLength="393.47" waitingTime="26.00" waitingCount="2" stopTime="0.00" timeLoss="46.89" rerouteNo="1" devices="tripinfo_f_86.0 routing_f_86.0" vType="DEFAULT_VEHTYPE" speedFactor="1.15" vaporized=""/>
    <tripinfo id="f_73.0" depart="12.00" departLane="-E15_0" departPos="5.10" departPosLat="0.00" departSpeed="0.00" departDelay="2.00" arrival="96.00" arrivalLane="E9_1" arrivalPos="88.80" arrivalPosLat="0.00" arrivalSpeed="11.59" duration="84.00" routeLength="580.42" waitingTime="22.00" waitingCount="1" stopTime="0.00" timeLoss="34.61" rerouteNo="1" devices="tripinfo_f_73.0 routing_f_73.0" vType="DEFAULT_VEHTYPE" speedFactor="0.88" vaporized=""/>
    <tripinfo id="f_82.0" depart="14.00" departLane="-E14_0" departPos="5.10" departPosLat="0.00" departSpeed="0.00" departDelay="0.00" arrival="96.00" arrivalLane="E6_0" arrivalPos="88.80" arrivalPosLat="0.00" arrivalSpeed="13.99" duration="82.00" routeLength="481.85" waitingTime="29.00" waitingCount="2" stopTime="0.00" timeLoss="46.58" rerouteNo="1" devices="tripinfo_f_82.0 routing_f_82.0" vType="DEFAULT_VEHTYPE" speedFactor="1.02" vaporized=""/>
    <tripinfo id="f_91.0" depart="16.00" departLane="-E13_1" departPos="5.10" departPosLat="0.00" departSpeed="0.00" departDelay="0.00" arrival="99.00" arrivalLane="E16_0" arrivalPos="88.80" arrivalPosLat="0.00" arrivalSpeed="11.09" duration="83.00" routeLength="481.85" waitingTime="29.00" waitingCount="1" stopTime="0.00" timeLoss="42.71" rerouteNo="1" devices="tripinfo_f_91.0 routing_f_91.0" vType="DEFAULT_VEHTYPE" speedFactor="0.89" vaporized=""/>
    <tripinfo id="f_66.1" depart="50.00" departLane="-E22_0" departPos="5.10" departPosLat="0.00" departSpeed="0.00" departDelay="0.00" arrival="102.00" arrivalLane="E22_1" arrivalPos="88.80" arrivalPosLat="0.00" arrivalSpeed="11.90" duration="52.00" routeLength="177.75" waitingTime="27.00" waitingCount="2" stopTime="0.00" timeLoss="36.47" rerouteNo="0" devices="tripinfo_f_66.1 routing_f_66.1" vType="DEFAULT_VEHTYPE" speedFactor="0.88" vaporized=""/>
    <tripinfo id="f_46.1" depart="60.00" departLane="-E16_1" departPos="5.10" departPosLat="0.00" departSpeed="0.00" departDelay="0.00" arrival="102.00" arrivalLane="E3_1" arrivalPos="88.80" arrivalPosLat="0.00" arrivalSpeed="12.59" duration="42.00" routeLength="381.85" waitingTime="0.00" waitingCount="0" stopTime="0.00" timeLoss="12.88" rerouteNo="1" devices="tripinfo_f_46.1 routing_f_46.1" vType="DEFAULT_VEHTYPE" speedFactor="0.98" vaporized=""/>
    <tripinfo id="f_68.0" depart="43.00" departLane="-E15_0" departPos="5.10" departPosLat="0.00" departSpeed="0.00" departDelay="0.00" arrival="105.00" arrivalLane="E17_0" arrivalPos="88.80" arrivalPosLat="0.00" arrivalSpeed="13.02" duration="62.00" routeLength="181.85" waitingTime="41.00" waitingCount="1" stopTime="0.00" timeLoss="48.14" rerouteNo="0" devices="tripinfo_f_68.0 routing_f_68.0" vType="DEFAULT_VEHTYPE" speedFactor="1.02" vaporized=""/>
    <tripinfo id="f_52.0" depart="41.00" departLane="-E16_1" departPos="5.10" departPosLat="0.00" departSpeed="0.00" departDelay="0.00" arrival="107.00" arrivalLane="E15_0" arrivalPos="88.80" arrivalPosLat="0.00" arrivalSpeed="12.36" duration="66.00" routeLength="293.47" waitingTime="21.00" waitingCount="1" stopTime="0.00" timeLoss="41.03" rerouteNo="1" devices="tripinfo_f_52.0 routing_f_52.0" vType="DEFAULT_VEHTYPE" speedFactor="0.90" vaporized=""/>
    <tripinfo id="f_47.1" depart="59.00" departLane="-E16_0" departPos="5.10" departPosLat="0.00" departSpeed="0.00" departDelay="0.00" arrival="107.00" arrivalLane="E9_0" arrivalPos="88.80" arrivalPosLat="0.00" arrivalSpeed="13.24" duration="48.00" routeLength="481.85" waitingTime="0.00" waitingCount="0" stopTime="0.00" timeLoss="12.98" rerouteNo="1" devices="tripinfo_f_47.1 routing_f_47.1" vType="DEFAULT_VEHTYPE" speedFactor="1.03" vaporized=""/>
    <tripinfo id="f_68.1" depart="67.00" departLane="-E15_1" departPos="5.10" departPosLat="0.00" departSpeed="0.00" departDelay="0.00" arrival="110.00" arrivalLane="E17_0" arrivalPos="88.80" arrivalPosLat="0.00" arrivalSpeed="12.97" duration="43.00" routeLength="181.85" waitingTime="17.00" waitingCount="1" stopTime="0.00" timeLoss="28.51" rerouteNo="0" devices="tripinfo_f_68.1 routing_f_68.1" vType="DEFAULT_VEHTYPE" speedFactor="1.00" vaporized=""/>
    <tripinfo id="f_53.0" depart="21.00" departLane="-E16_0" departPos="5.10" departPosLat="0.00" departSpeed="0.00" departDelay="0.00" arrival="112.00" arrivalLane="E17_1" arrivalPos="88.80" arrivalPosLat="0.00" arrivalSpeed="12.58" duration="91.00" routeLength="292.04" waitingTime="45.00" waitingCount="3" stopTime="0.00" timeLoss="66.41" rerouteNo="1" devices="tripinfo_f_53.0 routing_f_53.0" vType="DEFAULT_VEHTYPE" speedFactor="0.92" vaporized=""/>
    <tripinfo id="f_94.1" depart="81.00" departLane="-E13_0" departPos="5.10" departPosLat="0.00" departSpeed="0.00" departDelay="0.00" arrival="112.00" arrivalLane="-E13_0" arrivalPos="73.62" arrivalPosLat="0.00" arrivalSpeed="0.00" duration="31.00" routeLength="68.52" waitingTime="11.00" waitingCount="1" stopTime="11.00" timeLoss="15.50" rerouteNo="1" devices="tripinfo_f_94.1 routing_f_94.1" vType="DEFAULT_VEHTYPE" speedFactor="1.10" vaporized="collision"/>
    <tripinfo id="f_89.1" depart="92.00" departLane="-E13_0" departPos="5.10" departPosLat="0.00" departSpeed="0.00" departDelay="0.00" arrival="112.00" arrivalLane="-E13_0" arrivalPos="66.16" arrivalPosLat="0.00" arrivalSpeed="0.00" duration="20.00" routeLength="61.06" waitingTime="0.00" waitingCount="0" stopTime="11.00" timeLoss="4.42" rerouteNo="1" devices="tripinfo_f_89.1 routing_f_89.1" vType="DEFAULT_VEHTYPE" speedFactor="0.96" vaporized="collision"/>
    <tripinfo id="f_0.0" depart="26.00" departLane="-E3_1" departPos="5.10" departPosLat="0.00" departSpeed="0.00" departDelay="0.00" arrival="114.00" arrivalLane="E14_1" arrivalPos="88.80" arrivalPosLat="0.00" arrivalSpeed="12.67" duration="88.00" routeLength="394.90" waitingTime="43.00" waitingCount="2" stopTime="0.00" timeLoss="59.24" rerouteNo="0" devices="tripinfo_f_0.0 routing_f_0.0" vType="DEFAULT_VEHTYPE" speedFactor="0.99" vaporized=""/>
    <tripinfo id="f_0.1" depart="49.00" departLane="-E3_1" departPos="5.10" departPosLat="0.00" departSpeed="0.00" departDelay="0.00" arrival="116.00" arrivalLane="E14_1" arrivalPos="88.80" arrivalPosLat="0.00" arrivalSpeed="11.72" duration="67.00" routeLength="394.90" waitingTime="21.00" waitingCount="1" stopTime="0.00" timeLoss="36.51" rerouteNo="0" devices="tripinfo_f_0.1 routing_f_0.1" vType="DEFAULT_VEHTYPE" speedFactor="0.94" vaporized=""/>
    <tripinfo id="f_10.0" depart="15.00" departLane="-E3_0" departPos="5.10" departPosLat="0.00" departSpeed="0.00" departDelay="0.00" arrival="118.00" arrivalLane="E9_0" arrivalPos="88.80" arrivalPosLat="0.00" arrivalSpeed="13.38" duration="103.00" routeLength="268.80" waitingTime="67.00" waitingCount="3" stopTime="0.00" timeLoss="82.36" rerouteNo="0" devices="tripinfo_f_10.0 routing_f_10.0" vType="DEFAULT_VEHTYPE" speedFactor="1.01" vaporized=""/>
    <tripinfo id="f_25.0" depart="36.00" departLane="-E5_1" departPos="5.10" departPosLat="0.00" departSpeed="0.00" departDelay="0.00" arrival="118.00" arrivalLane="E7_0" arrivalPos="88.80" arrivalPosLat="0.00" arrivalSpeed="11.18" duration="82.00" routeLength="381.85" waitingTime="39.00" waitingCount="1" stopTime="0.00" timeLoss="49.50" rerouteNo="1" devices="tripinfo_f_25.0 routing_f_25.0" vType="DEFAULT_VEHTYPE" speedFactor="0.88" vaporized=""/>
    <tripinfo id="f_14.0" depart="14.00" departLane="-E9_1" departPos="5.10" departPosLat="0.00" departSpeed="0.00" departDelay="0.00" arrival="121.00" arrivalLane="E6_0" arrivalPos="88.80" arrivalPosLat="0.00" arrivalSpeed="15.77" duration="107.00" routeLength="393.47" waitingTime="60.00" waitingCount="3" stopTime="0.00" timeLoss="81.55" rerouteNo="0" devices="tripinfo_f_14.0 routing_f_14.0" vType="DEFAULT_VEHTYPE" speedFactor="1.16" vaporized=""/>
    <tripinfo id="f_51.0" depart="27.00" departLane="-E16_1" departPos="5.10" departPosLat="0.00" departSpeed="0.00" departDelay="3.00" arrival="121.00" arrivalLane="E14_1" arrivalPos="88.80" arrivalPosLat="0.00" arrivalSpeed="13.00" duration="94.00" routeLength="393.47" waitingTime="42.00" waitingCount="2" stopTime="0.00" timeLoss="64.46" rerouteNo="1" devices="tripinfo_f_51.0 routing_f_51.0" vType="DEFAULT_VEHTYPE" speedFactor="1.01" vaporized=""/>